# vtk DataFile Version 4.2
vtk output
ASCII
DATASET POLYDATA
POINTS 184 double
0.5253055546 0.30520916073 -11.332383545 0.5253055546 0.30487494755 -11.374778062 0.52561111185 0.30520916073 -11.589523536 
0.52561111185 0.30487494755 -11.696517776 0.5253055546 0.30454052477 -11.46724515 0.52561111185 0.30454052477 -11.854832428 
0.5253055546 0.30420590555 -11.615981558 0.52561111185 0.30420590555 -12.069136066 0.5253055546 0.30432322029 -5 
0.52538227748 0.30411447339 -4.6262473136 0.5253055546 0.30420590555 -6.0743192691 0.5253055546 0.30442415232 0 
0.52546321523 0.304228506 0 0.5253055546 0.30387028686 -13.77601213 0.52561111185 0.30387028686 -13.674265465 
0.52550778845 0.30388483321 -4.1660374551 0.5253055546 0.30387028686 -7.3758338588 0.52567036621 0.30384714226 -1.781593976 
0.52561210301 0.30403909715 0 0.5253055546 0.30382668836 -16.658468604 0.5253055546 0.30378445925 -20 
0.52561111185 0.30378260643 -15 0.52561111185 0.30381025055 -20 0.5256490272 0.30366996123 -3.8808589978 
0.52549631237 0.30354325264 -5.7121189918 0.5253055546 0.30353409005 -7.4134789948 0.5253055546 0.3032112135 -6.7208347492 
0.5255374341 0.30318403044 -5.417874127 0.5253055546 0.30291579688 -6.0342885797 0.52555113618 0.30290636283 -4.9226952191 
0.52565002968 0.30272919484 -3.4176668655 0.52548265627 0.3025579867 -3.3845976439 0.5253055546 0.302681135 -5.445716767 
0.52569867341 0.30255681752 -1.5426915874 0.5253055546 0.30251103143 -5 0.52559419742 0.30237641617 0 
0.5253055546 0.30222673501 0 0.52575569607 0.30384964589 0 0.52591666645 0.30387028686 -13.645934782 
0.52591666688 0.30374785979 -15 0.52571061466 0.30340478562 -4.1145843555 0.52582821331 0.30354975268 -2.0229292947 
0.52589674479 0.3036525923 0 0.52573704085 0.30310017462 -4.068578462 0.52593756983 0.30322430064 -2.0293508633 
0.52570953276 0.30290289656 -3.976565392 0.52590257339 0.30289700334 -2.1589117139 0.52599945408 0.30263588773 0 
0.5258781582 0.30252186728 0 0.52622222106 0.30387028686 -13.617961096 0.52622222234 0.30371364506 -15 
0.52603967439 0.30343909975 0 0.52619280466 0.30319729289 0 0.52621658677 0.30301863908 0 
0.52612025551 0.3029750485 -0.65778433478 0.52612740689 0.30275568429 0 0.52622222106 0.30420590555 -12.478177583 
0.52652777831 0.30420590555 -12.578623701 0.52652777831 0.30387028686 -13.57351714 0.52652777831 0.30367986647 -15 
0.52623880927 0.30285987296 0 0.52683333291 0.29599829005 0 0.52709358784 0.29599910168 0 
0.52713889016 0.29598098888 -0.50547062044 0.52683333291 0.29598098888 -0.26530548919 0.52730865422 0.29599199222 0 
0.52744444476 0.29598098888 -0.082453803327 0.5276671691 0.31703585798 0 0.52746180783 0.31685401148 0 
0.52744444476 0.31685401148 -0.13349300576 0.52774999936 0.31716764187 -0.35450172942 0.52744444476 0.31716764187 -2.1679281402 
0.52747010518 0.29598098888 0 0.52774999936 0.31872830546 -3.1110113809 0.52805555544 0.31872830546 -2.5980538094 
0.52774999936 0.31841715845 -2.7729496135 0.52805555662 0.31841715845 -2.2399595401 0.52802388777 0.31735020593 0 
0.5278502866 0.31719670953 0 0.52805555662 0.31748076792 -0.48527280389 0.52774999936 0.31748076792 -1.7297446135 
0.52836111119 0.31872830546 -1.9982117263 0.52836377838 0.31841980912 -1.5300406403 0.52805555662 0.31810520767 -1.733584577 
0.52835945183 0.31811785201 -1.0009521416 0.52805555662 0.31779307367 -1.1514187929 0.52836611523 0.31784798533 -0.42511050315 
0.52834228717 0.31765697381 0 0.52818710915 0.31750104627 0 0.52866666697 0.31872830546 -1.2628367878 
0.52868923935 0.31843399387 -0.67929761955 0.52861737319 0.31814599054 -0.33575188474 0.52862325817 0.31799340291 0 
0.52848744175 0.31782094485 0 0.52898566073 0.31856805777 0 0.52886856082 0.31836753735 0 
0.52897222307 0.31872830546 -0.4210243436 0.52874715282 0.31817327081 0 0.52925107677 0.31903893985 0 
0.52911092841 0.31879061108 0 0.52897222307 0.31903893985 -1.1680264309 0.52897222307 0.29296515221 0 
0.52900478408 0.2928005862 0 0.52897222307 0.2928005862 -0.10656731529 0.52927777767 0.31934908186 -0.82475054861 
0.52945820352 0.31934908186 0 0.52927777767 0.3190790214 0 0.52958333227 0.31965875161 -0.55723916243 
0.5296996655 0.31965875161 0 0.52958333227 0.31951641268 0 0.53019444413 0.32089251047 -6.2809875915 
0.53049999959 0.32089251047 -6.2048903956 0.53019444413 0.32058480126 -5.5900321143 0.53049999989 0.32058480126 -5.4693696764 
0.53080555516 0.32089251047 -6.1230083556 0.53080555598 0.32058480126 -5.3481314936 0.53111111067 0.32089251047 -6.0279213046 
0.53118609053 0.32066073506 -5.1998374459 0.53102877517 0.32047284644 -4.2418473594 0.53080555598 0.3204743734 -5 
0.53080555598 0.32027110793 -2.5443780816 0.53118975559 0.32030935253 -2.271235652 0.53111073614 0.32011105526 0 
0.53080555598 0.32006631963 0 0.53141666636 0.32089251047 -5.9139922589 0.53147514988 0.32067815983 -5.1140183297 
0.53132496553 0.3205083307 -4.0965885632 0.53151396937 0.32036677619 -2.3729129517 0.53141477219 0.3201544968 0 
0.53172222243 0.32063894247 -5 0.53153955112 0.32055445638 -4.3353234235 0.53172222243 0.32089251047 -5.7850280337 
0.53172222243 0.32058480126 -4.5249342672 0.53182020931 0.32036025813 -1.7603629256 0.53171504828 0.32019645225 0 
0.53202777704 0.32058480126 -3.8028856607 0.53202777704 0.32027660935 -0.4812525752 0.53200751916 0.32023710036 0 
0.53187809477 0.31559414261 0 0.5319156386 0.31591003687 0 0.53202777704 0.31591003687 -0.87887295381 
0.53206787795 0.31559416462 -1.1529760069 0.53183973574 0.31527818578 0 0.53202777704 0.31527818578 -1.3246175856 
0.53229175877 0.32027660935 0 0.53233333164 0.31643899065 -5 0.53202777704 0.31653985627 -3.9477086899 
0.53212231421 0.31653985627 -5 0.53233333164 0.31622521106 -3.3010927827 0.53202777704 0.31622521106 -1.3621265465 
0.53233333164 0.31591003687 -2.4115649706 0.53233333164 0.31559414261 -2.4605501683 0.53233333164 0.31527818578 -2.5474736954 
0.53263888889 0.31641258814 -5 0.53263888889 0.31622521106 -3.9449438417 0.53294444349 0.31648543608 -5 
0.53294444349 0.31622521106 -4.0039927563 0.53343201526 0.32027660935 0 0.53355555534 0.32027660935 -0.1232499932 
0.53355555534 0.3202544926 0 0.53836697064 0.3199679147 0 0.53824319651 0.3197678051 0 
0.53813888762 0.3197678051 -0.54287949246 0.53813888762 0.3199679147 -1.1876030699 0.53813888762 0.31959788221 0 
0.53844444487 0.3211997569 -3.4103463291 0.53874999947 0.3211997569 -2.0746485663 0.53844444487 0.32089251047 -2.6935294179 
0.53874999947 0.32089251047 -1.0995922902 0.53874999947 0.32211859412 -7.3214020821 0.53905555407 0.32211859412 -6.4709509925 
0.53874999947 0.32181277886 -7.4477322068 0.53905555407 0.32181277886 -6.6861816708 0.53892824347 0.32089251047 0 
0.53874999947 0.32059168435 0 0.53936111132 0.32211859412 -4.5347274487 0.5392767861 0.32242391814 -5 
0.53936111132 0.32242391814 -3.96224712 0.53933908145 0.32211859412 -5 0.53997222053 0.32211859412 -1.7655280822 
0.54027777778 0.32230160074 0 0.54004411523 0.32211859412 0 0.53997222053 0.32228361545 -5 
0.54027777778 0.32227586932 -5 
POLYGONS 184 736
3 0 1 2 
3 2 1 3 
3 1 4 3 
3 3 4 5 
3 4 6 5 
3 5 6 7 
3 8 9 10 
3 8 11 12 
3 9 8 12 
3 6 13 7 
3 7 13 14 
3 9 15 16 
3 10 9 16 
3 17 12 18 
3 17 15 12 
3 15 9 12 
3 19 20 21 
3 20 22 21 
3 14 13 19 
3 21 14 19 
3 15 23 24 
3 15 24 16 
3 16 24 25 
3 17 23 15 
3 25 24 26 
3 24 27 26 
3 26 27 28 
3 27 29 28 
3 30 31 32 
3 30 32 29 
3 29 32 28 
3 30 33 31 
3 32 31 34 
3 31 33 35 
3 31 35 34 
3 34 35 36 
3 18 37 17 
3 38 14 21 
3 39 38 21 
3 23 40 24 
3 23 41 40 
3 17 41 23 
3 17 42 41 
3 17 37 42 
3 40 43 27 
3 24 40 27 
3 44 40 41 
3 43 40 44 
3 43 45 29 
3 27 43 29 
3 46 43 44 
3 45 43 46 
3 29 45 30 
3 33 47 48 
3 30 47 33 
3 30 46 47 
3 30 45 46 
3 33 48 35 
3 49 38 39 
3 50 49 39 
3 42 51 41 
3 51 52 44 
3 41 51 44 
3 52 53 54 
3 52 54 44 
3 44 54 46 
3 46 54 55 
3 47 46 55 
3 56 49 57 
3 57 49 58 
3 58 49 50 
3 59 58 50 
3 53 60 54 
3 54 60 55 
3 61 62 63 
3 64 61 63 
3 62 65 66 
3 63 62 66 
3 67 68 69 
3 67 69 70 
3 70 69 71 
3 65 72 66 
3 73 74 75 
3 74 76 75 
3 77 78 70 
3 77 70 79 
3 79 70 80 
3 70 78 67 
3 74 81 76 
3 81 82 76 
3 76 82 83 
3 82 84 83 
3 83 84 85 
3 84 86 85 
3 87 88 79 
3 87 79 86 
3 86 79 85 
3 79 88 77 
3 81 89 82 
3 89 90 82 
3 82 90 84 
3 90 91 84 
3 92 93 86 
3 92 86 91 
3 91 86 84 
3 86 93 87 
3 94 95 90 
3 94 90 96 
3 96 90 89 
3 95 97 91 
3 90 95 91 
3 91 97 92 
3 98 99 96 
3 100 98 96 
3 96 99 94 
3 101 102 103 
3 104 105 106 
3 107 108 109 
3 110 111 112 
3 111 113 112 
3 111 114 113 
3 114 115 113 
3 114 116 115 
3 116 117 115 
3 115 117 118 
3 119 115 118 
3 118 120 119 
3 121 120 118 
3 120 121 122 
3 123 120 122 
3 116 124 117 
3 124 125 117 
3 117 125 126 
3 118 117 126 
3 126 121 118 
3 127 121 126 
3 121 127 128 
3 122 121 128 
3 129 130 125 
3 129 125 131 
3 131 125 124 
3 129 132 130 
3 125 130 126 
3 130 127 126 
3 130 132 127 
3 132 133 127 
3 127 133 134 
3 128 127 134 
3 132 135 133 
3 135 136 133 
3 133 136 137 
3 134 133 137 
3 138 139 140 
3 141 138 140 
3 142 138 141 
3 143 142 141 
3 136 144 137 
3 145 146 147 
3 145 148 146 
3 148 149 146 
3 149 148 140 
3 148 150 140 
3 140 150 141 
3 150 151 141 
3 141 151 143 
3 151 152 143 
3 153 148 145 
3 154 148 153 
3 155 154 153 
3 156 154 155 
3 157 158 159 
3 160 161 162 
3 163 160 162 
3 162 161 164 
3 165 166 167 
3 166 168 167 
3 169 170 171 
3 170 172 171 
3 168 173 174 
3 175 176 177 
3 178 176 175 
3 179 180 181 
3 179 182 180 
3 182 183 180 

CELL_DATA 184
FIELD FieldData 1
vtkGhostType 1 184 unsigned_char
0 0 0 0 0 0 0 0 0 
0 0 0 0 0 0 0 0 0 
0 0 0 0 0 0 0 0 0 
0 0 0 0 0 0 0 0 0 
0 0 0 0 0 0 0 0 0 
0 0 0 0 0 0 0 0 0 
0 0 0 0 0 0 0 0 0 
0 0 0 0 0 0 0 0 0 
0 0 0 0 0 0 0 0 0 
0 0 0 0 0 0 0 0 0 
0 0 0 0 0 0 0 0 0 
0 0 0 0 0 0 0 0 0 
0 0 0 0 0 0 0 0 0 
0 0 0 0 0 0 0 0 0 
0 0 0 0 0 0 0 0 0 
0 0 0 0 0 0 0 0 0 
0 0 0 0 0 0 0 0 0 
0 0 0 0 0 0 0 0 0 
0 0 0 0 0 0 0 0 0 
0 0 0 0 0 0 0 0 0 
0 0 0 0 
POINT_DATA 184
SCALARS scalars float
LOOKUP_TABLE default
10 10 10 10 10 10 10 10 10 
10 10 10 10 10 10 10 10 10 
10 10 10 10 10 10 10 10 10 
10 10 10 10 10 10 10 10 10 
10 10 10 10 10 10 10 10 10 
10 10 10 10 10 10 10 10 10 
10 10 10 10 10 10 10 10 10 
10 10 10 10 10 10 10 10 10 
10 10 10 10 10 10 10 10 10 
10 10 10 10 10 10 10 10 10 
10 10 10 10 10 10 10 10 10 
10 10 10 10 10 10 10 10 10 
10 10 10 10 10 10 10 10 10 
10 10 10 10 10 10 10 10 10 
10 10 10 10 10 10 10 10 10 
10 10 10 10 10 10 10 10 10 
10 10 10 10 10 10 10 10 10 
10 10 10 10 10 10 10 10 10 
10 10 10 10 10 10 10 10 10 
10 10 10 10 10 10 10 10 10 
10 10 10 10 
NORMALS Normals float
nan nan nan nan nan nan nan nan nan 
nan nan nan nan nan nan nan nan nan 
nan nan nan nan nan nan nan nan nan 
nan nan nan nan nan nan nan nan nan 
nan nan nan nan nan nan -0.0159249 -0.999873 3.90146e-05 
nan nan nan nan nan nan 0.875626 0.48299 -4.88022e-05 
0.796122 0.605136 -2.82356e-05 nan nan nan nan nan nan 
-0.125224 -0.992129 2.13493e-05 nan nan nan 0.908582 0.417707 -6.15483e-05 
0.984767 0.173878 -9.26041e-05 nan nan nan nan nan nan 
0.967057 -0.254559 -0.000152598 nan nan nan 0.805885 -0.592072 -0.000179423 
0.77334 -0.633992 -0.00017927 nan nan nan nan nan nan 
0.559547 -0.828799 -0.0001189 nan nan nan 0.477572 -0.878593 -7.09822e-05 
nan nan nan 0.799164 0.601113 -3.71997e-05 nan nan nan 
nan nan nan 0.950097 0.311956 -8.67495e-05 0.874026 0.485879 -6.56071e-05 
0.827483 0.561491 -5.38447e-05 0.99981 -0.0194898 -0.000142646 0.994589 0.10389 -0.000125177 
0.83783 -0.545931 -0.000181209 0.873416 -0.486974 -0.000159183 0.544331 -0.838871 -9.55214e-05 
0.517095 -0.855928 -8.98723e-05 nan nan nan nan nan nan 
0.832439 0.554116 -6.25775e-05 0.914032 0.405643 -0.000112003 0.99488 -0.101062 -0.000167655 
0.933365 -0.358927 -0.000177945 0.913799 -0.406166 -0.00017569 nan nan nan 
nan nan nan nan nan nan nan nan nan 
0.937811 -0.347146 -0.000180006 nan nan nan nan nan nan 
nan nan nan nan nan nan nan nan nan 
nan nan nan 0.65347 -0.756952 -0.000115177 nan nan nan 
nan nan nan nan nan nan nan nan nan 
nan nan nan nan nan nan nan nan nan 
nan nan nan 0.801047 -0.598601 -0.000476791 0.651053 -0.759032 -0.000157094 
0.645385 -0.763858 -0.00012136 0.707122 -0.707091 -0.000194318 nan nan nan 
nan nan nan 0.783922 -0.620859 -0.000368633 nan nan nan 
0.816039 -0.577996 -0.000321394 nan nan nan 0.775702 -0.631099 -0.000250212 
0.718869 -0.695146 -0.000210718 0.676586 -0.736363 -0.000176842 nan nan nan 
0.826536 -0.562884 -0.000282784 0.822659 -0.568535 -0.000257045 0.812609 -0.582809 -0.000245176 
0.770795 -0.637084 -0.000229984 0.882694 -0.469949 -0.000212629 0.876746 -0.480954 -0.000222999 
0.86777 -0.496966 -0.000219921 0.831547 -0.555455 -0.000244968 0.851867 -0.523758 -0.000178924 
0.876047 -0.482226 -0.000198285 nan nan nan nan nan nan 
nan nan nan nan nan nan nan nan nan 
nan nan nan nan nan nan nan nan nan 
nan nan nan nan nan nan nan nan nan 
nan nan nan nan nan nan nan nan nan 
nan nan nan 0.139577 -0.990211 -0.000238314 nan nan nan 
0.152746 -0.988265 -0.000221256 0.156184 -0.987728 -0.000198215 nan nan nan 
nan nan nan 0.141219 -0.989978 -0.000110006 0.146156 -0.989262 -6.3024e-05 
0.161844 -0.986816 -6.57638e-05 nan nan nan nan nan nan 
0.193531 -0.981094 -0.000196493 0.149346 -0.988785 -9.63467e-05 0.135332 -0.9908 -6.31001e-05 
nan nan nan 0.206132 -0.978524 -0.000196144 nan nan nan 
0.23824 -0.971206 -0.000176763 0.158631 -0.987338 -8.66389e-05 0.136855 -0.990591 -6.69583e-05 
nan nan nan 0.155462 -0.987842 -8.16437e-05 0.140335 -0.990104 -7.41031e-05 
-0.99234 0.123541 -0.000121157 -0.998926 0.0463251 -0.000111633 nan nan nan 
nan nan nan nan nan nan nan nan nan 
nan nan nan nan nan nan nan nan nan 
nan nan nan nan nan nan nan nan nan 
nan nan nan nan nan nan nan nan nan 
nan nan nan nan nan nan nan nan nan 
nan nan nan nan nan nan nan nan nan 
nan nan nan 0.842349 -0.538932 -0.000146619 0.848313 -0.529495 -0.000167858 
nan nan nan nan nan nan 0.849292 -0.527923 -0.000173076 
nan nan nan nan nan nan nan nan nan 
0.855874 -0.517185 -0.000154161 nan nan nan nan nan nan 
nan nan nan nan nan nan nan nan nan 
0.857978 -0.513687 -0.000129389 nan nan nan nan nan nan 
nan nan nan nan nan nan nan nan nan 
0.61338 -0.789788 2.5536e-06 0.629292 -0.777169 -1.61935e-05 nan nan nan 
nan nan nan 
FIELD FieldData 1
vtkGhostType 1 184 unsigned_char
0 0 0 0 0 0 0 0 0 
0 0 0 0 0 0 0 0 0 
0 0 0 0 0 0 0 0 0 
0 0 0 0 0 0 0 0 0 
0 0 0 0 0 0 0 0 0 
0 0 0 0 0 0 0 0 0 
0 0 0 0 0 0 0 0 0 
0 0 0 0 0 0 0 0 0 
0 0 0 0 0 0 0 0 0 
0 0 0 0 0 0 0 0 0 
0 0 0 0 0 0 0 0 0 
0 0 0 0 0 0 0 0 0 
0 0 0 0 0 0 0 0 0 
0 0 0 0 0 0 0 0 0 
0 0 0 0 0 0 0 0 0 
0 0 0 0 0 0 0 0 0 
0 0 0 0 0 0 0 0 0 
0 0 0 0 0 0 0 0 0 
0 0 0 0 0 0 0 0 0 
0 0 0 0 0 0 0 0 0 
0 0 0 0 
