# vtk DataFile Version 4.2
vtk output
ASCII
DATASET POLYDATA
POINTS 1357 double
0.52652777831 0.30587504184 0 0.52683333291 0.30599773156 0 0.52683333291 0.30587504184 -3.5343922156 
0.52683333291 0.30554239388 0 0.52713889016 0.30587504184 0 0.53661111196 0.32058480126 0 
0.53691666656 0.32089251047 0 0.53691666656 0.32058480126 -1.6655668001 0.53691666656 0.32027660935 0 
0.53722222116 0.32089251047 0 0.53722222116 0.32058480126 -0.097132275272 0.53722222116 0.3205614673 0 
0.53723871436 0.32058480126 0 0.53813888762 0.32211859412 0 0.53844444487 0.32242391814 0 
0.53844444487 0.32211859412 -5 0.53844444487 0.32188586291 0 0.53874999947 0.32242391814 0 
0.53874999947 0.32211859412 -0.066629091551 0.53874999947 0.32207242315 0 0.53883393427 0.32211859412 0 
0.53905555407 0.32272877074 0 0.53905555407 0.32242391814 -0.33563977472 0.53905555407 0.32223289442 0 
0.53936111132 0.32272877074 0 0.53936111132 0.32242391814 -0.096410322345 0.53936111132 0.32238188967 0 
0.53966666592 0.32242391814 0 0.55097222328 0.2935120674 0 0.55127777523 0.29386680421 0 
0.55127777523 0.2935120674 -0.081754337111 0.55127777523 0.29315666936 0 0.55158333249 0.2935120674 0 
0.5534166654 0.2700515223 -5 0.55372222265 0.27035335997 -5 0.55372222265 0.2700515223 -10 
0.55372222265 0.2700515223 -2.701902184 0.55372222265 0.26964691246 -5 0.5540277799 0.2700515223 -5 
0.55433333185 0.2700515223 -5 0.5546388891 0.27010832374 -5 0.5546388891 0.2700515223 -10 
0.5546388891 0.2700515223 -4.5116337092 0.5546388891 0.26964691246 -5 0.5548122712 0.2700515223 -5 
0.55494444105 0.26964691246 -10 0.55494444105 0.26964691246 -5 0.55494444105 0.26924135591 -10 
0.55494444105 0.26924135591 -5 0.55494444105 0.26924135591 0 0.5552499983 0.26977786715 -10 
0.5552499983 0.26989670542 -5 0.5552499983 0.26964691246 -15 0.55555555556 0.26964691246 -10 
0.5552499983 0.26964691246 -2.4553409886 0.5552499983 0.26940442845 0 0.5552499983 0.26924135591 -10.251231226 
0.5552499983 0.26883489551 -10 0.55555555556 0.26924135591 -10 0.5552499983 0.26883489551 -5 
0.5552499983 0.26883489551 0 0.55555555556 0.26973806535 -5 0.55555555556 0.26964691246 -4.0265093912 
0.5557114493 0.26964691246 -5 0.55555555556 0.26926519396 0 0.55555555556 0.26883489551 -5 
0.55555555556 0.26883489551 0 0.55560576359 0.26924135591 0 0.55586111281 0.26936998363 -10 
0.55586111281 0.26955318338 -5 0.55586111281 0.26924135591 -10.314240217 0.55586111281 0.26883489551 -10 
0.55605958657 0.26924135591 -10 0.55586111281 0.26924135591 -1.4571668149 0.55586111281 0.26883489551 -5 
0.55586111281 0.2691107733 0 0.55586111281 0.26842750269 0 0.55616667006 0.26935471848 -5 
0.55616667006 0.26924135591 -8.1392676718 0.55616667006 0.26924135591 -3.5722447589 0.55616667006 0.26883489551 -5 
0.55633806752 0.26924135591 -5 0.55616667006 0.26894810343 0 0.55616667006 0.26883489551 -10 
0.55616667006 0.26842750269 0 0.55637314264 0.26883489551 0 0.55616667006 0.26842750269 -10 
0.55616667006 0.26842750269 -5 0.55616667006 0.26801914867 0 0.55647222201 0.26924135591 -20 
0.55647222201 0.26924135591 -10 0.55647222201 0.2691438726 -5 0.55647222201 0.26883489551 -20 
0.55647222201 0.26883489551 -15 0.55663626542 0.26883489551 -10 0.55647222201 0.26883489551 -0.78709662164 
0.55647222201 0.2687754549 0 0.55647222201 0.26842750269 -15 0.55647222201 0.26801914867 -10 
0.55677777396 0.26842750269 -10 0.55647222201 0.26801914867 -5 0.55647222201 0.26760987651 0 
0.55677777396 0.26801914867 0 0.55677777396 0.26964691246 -20 0.55677777396 0.26924135591 -30 
0.55677777396 0.26924135591 -17.476500194 0.55677777396 0.26891259013 -5 0.55677777396 0.26883489551 -30 
0.55677777396 0.26883489551 -17.268311403 0.55677777396 0.26842750269 -20 0.55677777396 0.26883489551 -7.1394720234 
0.55677777396 0.26883489551 -3.7854955692 0.55687684338 0.26883489551 -5 0.55677777396 0.26858708177 0 
0.55677777396 0.26801914867 -5 0.55701801621 0.26842750269 0 0.55708333121 0.26964691246 -30 
0.55708333121 0.26964691246 -20 0.55708333121 0.26924135591 -40 0.55708333121 0.26883489551 -30 
0.55738888847 0.26924135591 -30 0.55708333121 0.26924135591 -17.49430772 0.55738888847 0.26924135591 -20 
0.55708333121 0.26883489551 -17.292856194 0.55708333121 0.26842750269 -20 0.55738888847 0.26883489551 -20 
0.55708333121 0.26844136346 -10 0.55708333121 0.26865350051 -5 0.55708333121 0.26842750269 -15 
0.55708333121 0.26801914867 -10 0.55709837728 0.26842750269 -10 0.55708333121 0.26842750269 -0.86823881549 
0.55708333121 0.26801914867 -5 0.55732514819 0.26842750269 -5 0.55708333121 0.26801914867 0 
0.55738888847 0.2681324346 0 0.55738888847 0.26801914867 -5 0.55738888847 0.26760987651 0 
0.55752510775 0.26801914867 0 0.55738888847 0.26760987651 -5 0.55738888847 0.26719965739 0 
0.55769444572 0.26799099212 -5 0.55769444572 0.26785676687 0 0.55769444572 0.26760987651 -10 
0.55769444572 0.26719965739 -5 0.55797514442 0.26760987651 -5 0.55794920115 0.26760987651 0 
0.55769444572 0.26678846223 0 0.55800000297 0.26757182022 -5 0.55800000297 0.26755370923 0 
0.55800000297 0.26719965739 -8.7476216156 0.55800000297 0.26678846223 -5 0.55825577288 0.26719965739 -5 
0.55800000297 0.26678846223 0 0.55800000297 0.26637631012 -10 0.55800000297 0.26637631012 -5 
0.55800000297 0.26637631012 0 0.55800000297 0.26596324461 0 0.55830555492 0.26721796548 0 
0.55830555492 0.26719965739 -1.1550907303 0.55830555492 0.2671167771 -5 0.55832228774 0.26719965739 0 
0.55830555492 0.26678846223 -7.8604140506 0.55830555492 0.26646030499 -10 0.55851608858 0.26678846223 -5 
0.55830555492 0.26637631012 -10.25048643 0.55830555492 0.26596324461 -10 0.55835524059 0.26637631012 -10 
0.55830555492 0.26596324461 -5 0.55830555492 0.26554916368 0 0.55830555492 0.26554916368 -5 
0.55861111217 0.26683277364 0 0.55861111217 0.26678846223 -1.2971023564 0.55861111217 0.26662163778 -5 
0.55864640434 0.26678846223 0 0.55861111217 0.26637631012 -7.0116866484 0.55876164466 0.26637631012 -5 
0.55861111217 0.26596324461 -9.6961978766 0.55861111217 0.26554916368 -10 0.55861111217 0.26513411069 -5 
0.55861111217 0.26513411069 0 0.55891666412 0.2663934074 0 0.55891666412 0.26637631012 -0.3560035728 
0.55891666412 0.26609404517 -5 0.558929077 0.26637631012 0 0.55891666412 0.26596324461 -6.0616629684 
0.55899559909 0.26596324461 -5 0.55919065693 0.26596324461 0 0.55891666412 0.26554916368 -8.8243065738 
0.55921888546 0.26554916368 -5 0.55891666412 0.26513411069 -10 0.55891666412 0.26471812942 -5 
0.55891666412 0.26471812942 0 0.55891666412 0.26262318953 0 0.55922222137 0.26590530248 0 
0.55922222137 0.26554916368 -4.9196327314 0.55922222137 0.26554200122 -5 0.55943712623 0.26554916368 0 
0.55922222137 0.26513411069 -7.7565590136 0.55943469131 0.26513411069 -5 0.55922222137 0.26471812942 -10 
0.55922222137 0.26430111706 -5 0.55922222137 0.26430111706 0 0.55922222137 0.26304418333 0 
0.55922222137 0.26262318953 -5 0.55922222137 0.26227485725 0 0.55952777863 0.26536883686 0 
0.55952777863 0.26513411069 -2.8697482237 0.55952777863 0.2649143376 -5 0.55966328261 0.26513411069 0 
0.55952777863 0.26471812942 -6.2677745858 0.55952777863 0.26430111706 -5 0.55962445843 0.26471812942 -5 
0.55952777863 0.26388311719 0 0.55952777863 0.26346417382 0 0.55952777863 0.26304418333 -5 
0.55952777863 0.26262318953 -0.070341529613 0.55952777863 0.26261118776 0 0.55953789417 0.26262318953 0 
0.55983333588 0.26476259014 0 0.55983333588 0.26471812942 -0.47466954732 0.55985761358 0.26471812942 0 
0.55983333588 0.26430111706 -3.4018058691 0.56001177818 0.26430111706 0 0.55983333588 0.26388311719 -5 
0.56007811278 0.26388311719 0 0.55983333588 0.26346417382 -2.3054221218 0.56002805435 0.26346417382 0 
0.55983333588 0.26304418333 -0.12199980875 0.55983333588 0.2630248408 0 0.55984554998 0.26304418333 0 
0.5605737877 0.25878835148 -5 0.56074999703 0.25894240835 -5 0.56074999703 0.25878835148 -10 
0.56074999703 0.25878835148 -4.3703277839 0.56074999703 0.25835702377 -5 0.56074999703 0.25792468238 -5 
0.56105555428 0.25921737759 -5 0.561056879 0.25921862048 -5 0.56105555428 0.25878835148 -7.9311754343 
0.56130310324 0.25878835148 -10 0.56105555428 0.25878835148 -3.3614269203 0.56105555428 0.25835702377 -10 
0.56105555428 0.25835702377 -2.3508654311 0.56105555428 0.25792468238 -10 0.56105555428 0.25792468238 -1.7486577706 
0.56105555428 0.25749121999 -5 0.56136111153 0.25792468238 -5 0.56136111153 0.25952020177 -5 
0.56149079374 0.25964783651 -5 0.56136111153 0.25921862048 -7.2976827427 0.56136111153 0.2588634268 -10 
0.56164726671 0.25921862048 -10 0.56136111153 0.25921862048 -3.6974510906 0.56136111153 0.25878835148 -10.212563973 
0.56136111153 0.25835702377 -10 0.56136111153 0.25878835148 -2.4462684342 0.56136111153 0.25835702377 -1.715086511 
0.56136111153 0.25792468238 -10 0.56166666879 0.25983619092 -5 0.56192219003 0.26007595506 -5 
0.56166666879 0.25964783651 -6.5850224805 0.56166666879 0.25924462142 -10 0.56166666879 0.25964783651 -4.0616239687 
0.56166666879 0.25921862048 -10.088038052 0.56166666879 0.25921862048 -2.4983287206 0.56166666879 0.25878835148 -11.517057274 
0.56166666879 0.25878835148 -1.5901080454 0.56166666879 0.25835702377 -12.754351704 0.56166666879 0.25835702377 -1.1142746354 
0.56166666879 0.25792468238 -13.808804808 0.56188567204 0.25792468238 -15 0.56166666879 0.25749121999 -10 
0.56166666879 0.25792468238 -0.91731210639 0.56166666879 0.25749121999 -5 0.56197222074 0.26012577896 -5 
0.56197222074 0.26007595506 -5.4891570722 0.56197222074 0.26007595506 -4.6864608217 0.56197222074 0.25964783651 -9.7053528062 
0.56197222074 0.25961797568 -10 0.56200064946 0.25964783651 -10 0.56197222074 0.25964783651 -2.5651520141 
0.56197222074 0.25921862048 -11.691986293 0.56197222074 0.25921862048 -1.3837290366 0.56197222074 0.25878835148 -13.249081133 
0.56220604847 0.25878835148 -15 0.56197222074 0.25878835148 -0.78234932118 0.56197222074 0.25835702377 -14.517873542 
0.56197222074 0.25816504145 -15 0.56204218953 0.25835702377 -15 0.56197222074 0.25835702377 -0.54370528154 
[...]
POINT_DATA 1357
SCALARS scalars float
LOOKUP_TABLE default
0 0 0 0 0 0 0 0 0 
0 0 0 0 0 0 0 0 0 
0 0 0 0 0 0 0 0 0 
0 0 0 0 0 0 0 0 0 
0 0 0 0 0 0 0 0 0 
0 0 0 0 0 0 0 0 0 
0 0 0 0 0 0 0 0 0 
0 0 0 0 0 0 0 0 0 
0 0 0 0 0 0 0 0 0 
0 0 0 0 0 0 0 0 0 
0 0 0 0 0 0 0 0 0 
0 0 0 0 0 0 0 0 0 
0 0 0 0 0 0 0 0 0 
0 0 0 0 0 0 0 0 0 
0 0 0 0 0 0 0 0 0 
0 0 0 0 0 0 0 0 0 
0 0 0 0 0 0 0 0 0 
0 0 0 0 0 0 0 0 0 
0 0 0 0 0 0 0 0 0 
0 0 0 0 0 0 0 0 0 
0 0 0 0 0 0 0 0 0 
0 0 0 0 0 0 0 0 0 
0 0 0 0 0 0 0 0 0 
0 0 0 0 0 0 0 0 0 
0 0 0 0 0 0 0 0 0 
0 0 0 0 0 0 0 0 0 
0 0 0 0 0 0 0 0 0 
0 0 0 0 0 0 0 0 0 
0 0 0 0 0 0 0 0 0 
0 0 0 0 0 0 0 0 0 
0 0 0 0 0 0 0 0 0 
0 0 0 0 0 0 0 0 0 
0 0 0 0 0 0 0 0 0 
0 0 0 0 0 0 0 0 0 
0 0 0 0 0 0 0 0 0 
0 0 0 0 0 0 0 0 0 
0 0 0 0 0 0 0 0 0 
0 0 0 0 0 0 0 0 0 
0 0 0 0 0 0 0 0 0 
0 0 0 0 0 0 0 0 0 
0 0 0 0 0 0 0 0 0 
0 0 0 0 0 0 0 0 0 
0 0 0 0 0 0 0 0 0 
0 0 0 0 0 0 0 0 0 
0 0 0 0 0 0 0 0 0 
0 0 0 0 0 0 0 0 0 
0 0 0 0 0 0 0 0 0 
0 0 0 0 0 0 0 0 0 
0 0 0 0 0 0 0 0 0 
0 0 0 0 0 0 0 0 0 
0 0 0 0 0 0 0 0 0 
0 0 0 0 0 0 0 0 0 
0 0 0 0 0 0 0 0 0 
0 0 0 0 0 0 0 0 0 
0 0 0 0 0 0 0 0 0 
0 0 0 0 0 0 0 0 0 
0 0 0 0 0 0 0 0 0 
0 0 0 0 0 0 0 0 0 
0 0 0 0 0 0 0 0 0 
0 0 0 0 0 0 0 0 0 
0 0 0 0 0 0 0 0 0 
0 0 0 0 0 0 0 0 0 
0 0 0 0 0 0 0 0 0 
0 0 0 0 0 0 0 0 0 
0 0 0 0 0 0 0 0 0 
0 0 0 0 0 0 0 0 0 
0 0 0 0 0 0 0 0 0 
0 0 0 0 0 0 0 0 0 
0 0 0 0 0 0 0 0 0 
0 0 0 0 0 0 0 0 0 
0 0 0 0 0 0 0 0 0 
0 0 0 0 0 0 0 0 0 
0 0 0 0 0 0 0 0 0 
0 0 0 0 0 0 0 0 0 
0 0 0 0 0 0 0 0 0 
0 0 0 0 0 0 0 0 0 
0 0 0 0 0 0 0 0 0 
0 0 0 0 0 0 0 0 0 
0 0 0 0 0 0 0 0 0 
0 0 0 0 0 0 0 0 0 
0 0 0 0 0 0 0 0 0 
0 0 0 0 0 0 0 0 0 
0 0 0 0 0 0 0 0 0 
0 0 0 0 0 0 0 0 0 
0 0 0 0 0 0 0 0 0 
0 0 0 0 0 0 0 0 0 
0 0 0 0 0 0 0 0 0 
0 0 0 0 0 0 0 0 0 
0 0 0 0 0 0 0 0 0 
0 0 0 0 0 0 0 0 0 
0 0 0 0 0 0 0 0 0 
0 0 0 0 0 0 0 0 0 
0 0 0 0 0 0 0 0 0 
0 0 0 0 0 0 0 0 0 
0 0 0 0 0 0 0 0 0 
0 0 0 0 0 0 0 0 0 
0 0 0 0 0 0 0 0 0 
0 0 0 0 0 0 0 0 0 
0 0 0 0 0 0 0 0 0 
0 0 0 0 0 0 0 0 0 
0 0 0 0 0 0 0 0 0 
0 0 0 0 0 0 0 0 0 
0 0 0 0 0 0 0 0 0 
0 0 0 0 0 0 0 0 0 
0 0 0 0 0 0 0 0 0 
0 0 0 0 0 0 0 0 0 
0 0 0 0 0 0 0 0 0 
0 0 0 0 0 0 0 0 0 
0 0 0 0 0 0 0 0 0 
0 0 0 0 0 0 0 0 0 
0 0 0 0 0 0 0 0 0 
0 0 0 0 0 0 0 0 0 
0 0 0 0 0 0 0 0 0 
0 0 0 0 0 0 0 0 0 
0 0 0 0 0 0 0 0 0 
0 0 0 0 0 0 0 0 0 
0 0 0 0 0 0 0 0 0 
0 0 0 0 0 0 0 0 0 
0 0 0 0 0 0 0 0 0 
0 0 0 0 0 0 0 0 0 
0 0 0 0 0 0 0 0 0 
0 0 0 0 0 0 0 0 0 
0 0 0 0 0 0 0 0 0 
0 0 0 0 0 0 0 0 0 
0 0 0 0 0 0 0 0 0 
0 0 0 0 0 0 0 0 0 
0 0 0 0 0 0 0 0 0 
0 0 0 0 0 0 0 0 0 
0 0 0 0 0 0 0 0 0 
0 0 0 0 0 0 0 0 0 
0 0 0 0 0 0 0 0 0 
0 0 0 0 0 0 0 0 0 
0 0 0 0 0 0 0 0 0 
0 0 0 0 0 0 0 0 0 
0 0 0 0 0 0 0 0 0 
0 0 0 0 0 0 0 0 0 
0 0 0 0 0 0 0 0 0 
0 0 0 0 0 0 0 0 0 
0 0 0 0 0 0 0 0 0 
0 0 0 0 0 0 0 0 0 
0 0 0 0 0 0 0 0 0 
0 0 0 0 0 0 0 0 0 
0 0 0 0 0 0 0 0 0 
0 0 0 0 0 0 0 0 0 
0 0 0 0 0 0 0 0 0 
0 0 0 0 0 0 0 0 0 
0 0 0 0 0 0 0 0 0 
0 0 0 0 0 0 0 0 0 
0 0 0 0 0 0 0 0 0 
0 0 0 0 0 0 0 0 0 
0 0 0 0 0 0 0 
NORMALS Normals float
0.419225 -0.907882 -0 0.293435 -0.955979 3.8266e-05 1.06166e-17 -1 0.000187055 
-0 1 -0 -1 -0 -0 1 -0 -0 
-0 -1 -0 -1 3.72198e-17 0.00031527 -0.411129 0.911577 -0 
-0.979804 -0.199963 -0 -0.941622 0.336673 0.000159226 -0.939106 0.343629 0.000162134 
-0.944162 0.329482 0.000160436 1 -0 -0 -0 -1 -0 
-1 -0 4.00967e-06 -0.38623 0.922403 -0 0.975161 -0.221497 -0 
-0.78213 0.623115 0.000869644 -0.748609 0.663012 0.00089708 -0.683602 0.729855 0.000799997 
-0 -1 -0 -0.344055 0.938949 0.00112875 -0.391442 0.920202 0.00072146 
-0 -1 -0 -0.404093 0.914717 0.000792487 -0.546309 0.837583 0.000705236 
-0.571275 0.820759 -0 1 -0 -0 -0 -1 -0 
-3.14693e-15 2.10894e-15 1 -0 1 -0 -1 -0 -0 
1 -0 -0 -0.292255 -0.95634 -4.45202e-05 -0 -1 6.45544e-05 
-0.559041 -0.82914 -0.00013526 -0 1 -0 -0.900856 -0.434117 -7.97266e-05 
0.287785 -0.957695 -0.000139201 -0.21112 -0.97746 -9.63403e-05 -0.47689 -0.878963 7.17809e-06 
-0.176805 -0.984246 -0.000116998 -0 1 -0 -0.423989 -0.905667 -7.84753e-05 
0.676472 -0.736468 -0 0.992644 -0.121072 -0 1 -0 -0 
1 -0 -0 1 -0 -0 -0.107084 -0.99425 6.78005e-05 
-0.207837 -0.978163 -3.5725e-05 -0 1 1.21514e-06 -0.752318 -0.6588 1.05101e-05 
-0.227852 -0.973696 -6.79809e-05 -0.349356 -0.93699 -0.000154968 -0 0.999976 0.0068783 
-0 1 -0 -1 -0 5.39479e-05 -0 1 -0 
-0 1 -0 -0.493218 -0.869906 -3.21248e-05 -0.480862 -0.876796 -4.34267e-05 
-0.512751 -0.858538 -2.82322e-05 -0.687434 -0.726247 -0.000134142 -0 1 -0 
0.997573 0.0696354 -0 -0.655915 -0.754835 -0.000125291 -0.496601 -0.867979 0.000340359 
-0.616211 -0.787582 -2.64251e-05 -0.528736 -0.848786 0.000429611 -0 1 -0 
-0.336658 -0.941627 0.000403095 -0.590565 -0.80699 -7.58899e-05 -0 1 7.08002e-05 
-0.357746 -0.933819 -5.43182e-05 -0 1 -0 -0.771055 -0.636768 -2.60718e-05 
-0.614365 -0.789022 0.000189058 -0.753653 -0.657273 -4.65577e-05 0.95721 0.289393 2.27749e-05 
-0.6942 -0.719782 -3.53518e-05 -0.707475 -0.706738 -8.48789e-06 0.900992 -0.433835 -0 
0.966304 0.257402 -0 -0.589625 -0.807677 -4.234e-05 1 -0 -0 
1 -0 -0 1 -0 -0 0.871642 -0.490143 -0 
-0.547087 -0.837076 -8.22973e-06 -0.453096 -0.891462 -3.51384e-05 1 -0 -0 
-1 -0 4.07967e-06 -0.599429 -0.800428 0.000149206 -0.425304 -0.90505 -5.89328e-05 
-0.418167 -0.90837 -6.68586e-05 -0 -0 1 -0 1 -0 
-0.988669 -0.150112 5.44175e-05 -0 1 8.60908e-05 -0 1 -0 
-0.988419 0.151747 -0 0.703922 -0.710277 -6.6069e-06 1 -0 9.10726e-05 
-0.0145339 -0.999894 -7.68095e-05 -0.62283 -0.782358 -1.1429e-05 -0 -0 1 
-0.144269 -0.989538 -0.000526615 -0 1 -0 -0.684096 -0.729392 6.50729e-05 
-0.606217 -0.795299 -2.1156e-05 -0.636147 -0.771568 -1.02133e-05 -0.738442 -0.674317 -7.33165e-05 
-0 1 -0 -0.809175 -0.587567 -6.43329e-05 -0 -1 -0 
-0 -1 -9.25617e-06 -0 -0 1 -0 1 0.000120818 
-1 -0 -0 -0.724965 -0.688786 -6.80024e-05 -1 -0 -2.48228e-05 
-0.992076 -0.125642 -7.51392e-05 -0 1 -0 -1 -0 -2.39691e-06 
-0.669857 -0.74249 4.58366e-05 -0.801178 -0.598427 -8.01022e-06 -0.749523 -0.661978 3.3157e-07 
-0 1 -0 -0.6798 -0.733397 4.81552e-05 -0.82756 -0.561378 -5.02095e-05 
-0 1 -0 -0.888097 -0.459657 -3.04106e-06 0.945419 -0.325857 -0 
-0.573485 -0.819216 5.4097e-06 -0.379859 -0.925044 0.000130755 0.930361 0.366644 -0 
-0.631644 -0.775258 2.2854e-06 1 -0 -0 1 -0 -0 
-0.556644 -0.830751 1.26649e-05 -0.51365 -0.858 -1.87411e-05 -0.842789 -0.538244 4.9293e-05 
0.758924 0.651179 0.000104296 -0.814935 -0.579552 2.23117e-05 -0.658277 -0.752776 -4.68961e-06 
-0 1 -0 -0.815801 -0.578333 2.3655e-05 -0.76527 -0.643709 -2.10332e-06 
-0.843509 -0.537114 5.31634e-05 0.720829 0.693113 -0 -0.835591 -0.549353 3.72347e-05 
0.817336 0.576162 -0 1 -0 -0 1 -0 -0 
1 -0 -0 1 -0 -0 -0.760628 -0.649188 1.0558e-05 
-0.779957 -0.625833 1.56982e-05 -0.789744 -0.613437 3.7684e-05 -0.762576 -0.646899 1.11411e-05 
-0.640402 -0.76804 0.000112392 -0.848241 -0.52961 0.000242118 -0.765571 -0.643351 4.87272e-05 
-0.862704 -0.505709 0.000258372 -0.595508 0.803349 -0 -0.867136 -0.498071 0.000245955 
0.726647 0.687011 0.000104413 0.763299 0.646045 -0 1 -0 -0 
-0.803975 -0.594664 2.09159e-05 -0.819324 -0.573331 2.61372e-05 -0.858231 -0.513263 4.17212e-05 
-0.807929 -0.58928 2.18772e-05 -0.867557 -0.497337 6.92062e-05 -0.864544 -0.502557 4.45229e-05 
-0.817725 -0.575609 0.000242693 -0.977995 -0.20863 0.000403594 0.729039 0.684473 -0 
0.747297 0.664491 -0 -0.834935 -0.550349 2.82763e-05 -0.83779 -0.545993 2.95184e-05 
-0.870823 -0.491597 4.67924e-05 -0.835723 -0.549151 2.85321e-05 -0.873657 -0.486543 6.10874e-05 
-0.872821 -0.488041 4.78824e-05 -0.852568 -0.522616 3.34307e-05 -0.861583 -0.507616 0.000147723 
-0.882656 -0.47002 5.02524e-05 -0.914842 -0.403811 0.000177493 0.697855 0.716239 -0 
0.720129 0.69384 -0 1 -0 -0 -0.85534 -0.518067 3.39487e-05 
-0.882493 -0.470326 5.00026e-05 -0.882916 -0.469531 5.02659e-05 -0.868881 -0.495021 3.72996e-05 
-0.876585 -0.481246 0.000105316 -0.897369 -0.441282 5.20474e-05 -0.887987 -0.459869 8.69315e-05 
-0 1 -0 0.660214 0.751077 -0 0.850347 -0.526222 -0 
-1 -0 2.65915e-05 -0.537906 0.843005 -9.80121e-21 -0.879136 -0.476572 3.86033e-05 
-0.89624 -0.443569 4.67005e-05 -0.956612 -0.291366 5.49546e-05 -0.889939 -0.456079 4.06203e-05 
-0.972942 -0.231049 7.75057e-05 -0.701124 0.713039 0.000275622 -0.977639 -0.210291 5.66515e-05 
0.480309 0.877099 -0 0.718142 -0.695896 -0 -0.740849 0.671672 2.8862e-05 
-0.761902 0.647692 0.00011056 -0.76134 0.648353 0.000110741 -0.763049 0.64634 0.000110179 
-0.919184 -0.393828 4.38275e-05 -0.923463 -0.383687 4.51496e-05 -0.922246 -0.386603 4.42198e-05 
-0.940067 -0.340991 3.55193e-05 -0.965512 -0.260359 4.87276e-05 -0.981036 0.193823 4.42037e-05 
-0.998596 -0.0529791 6.81435e-05 -0.72909 0.684418 9.09234e-05 -0.938112 0.346331 0.000100494 
-0.863676 0.504047 8.76077e-05 -0.860039 0.510228 8.73782e-05 -0.864505 0.502624 8.67413e-05 
0.738991 -0.673715 -0.000158624 0.851378 -0.524553 -0.000107427 -1 -0 3.0117e-05 
0.936948 -0.34947 -0.000136478 0.992846 0.119399 -6.3573e-05 1 -0 -3.82164e-05 
0.685214 -0.728342 -2.37771e-05 0.685287 -0.728273 -2.37722e-05 0.451975 -0.892031 1.2554e-06 
0.90532 -0.42473 0.000177376 0.724341 -0.689442 -0.000110903 -0 -1 0.000250433 
0.891864 -0.452303 -0.000161975 -0 -0 1 0.757522 -0.65281 -0.000827313 
-0 1 -0 0.57211 0.820177 -3.53755e-05 0.711647 -0.702537 -2.45837e-05 
0.712271 -0.701905 -2.32208e-05 0.747057 -0.66476 5.14599e-05 0.929673 -0.368387 0.000176749 
0.781359 -0.624082 0.000127221 0.741171 -0.671316 -7.70547e-05 0.919676 -0.392678 0.000196281 
0.998334 0.0576931 8.22644e-05 0.793577 -0.60847 -0.000177882 0.961309 0.275471 -0.000343127 
1 -0 -0 0.712894 -0.701272 -2.23461e-05 0.669486 -0.742824 -1.93987e-05 
0.737775 -0.675047 2.19108e-05 0.781462 -0.623953 0.000125848 0.741365 -0.671102 -5.14559e-05 
0.785454 -0.618921 0.000125549 0.806439 -0.591317 -0.00013611 0.845284 -0.534318 0.000122518 
0.87144 -0.490503 -0.000252167 0.681584 -0.73174 0.000191287 0.935289 -0.353883 -0.00042005 
0.910557 -0.413384 0.000250268 0.854204 -0.519938 0.000282749 -0 1 -0 
0.93997 0.341257 -0.000357236 -0 1 -2.31755e-05 0.655325 -0.755347 -1.91578e-05 
0.669876 -0.742473 -7.63768e-06 0.671367 -0.741125 -2.66283e-05 0.755214 -0.655478 9.85825e-05 
0.75964 -0.650344 0.000106726 0.754787 -0.655969 0.000105217 0.785049 -0.619434 -0.00010388 
0.838776 -0.544476 0.000102035 0.874347 -0.4853 -0.000201047 0.895639 -0.444782 9.81179e-05 
0.925714 -0.378224 7.86723e-05 0.944284 -0.329131 -0.00033117 0.930395 -0.366558 9.71697e-05 
0.949639 -0.313346 0.000125918 0.950738 -0.309997 0.000114836 0.991378 -0.131034 -0.000511011 
0.992019 0.126087 -0.000578604 0.90803 -0.418906 3.5523e-06 -0 1 -0 
-0.466562 0.884488 -0 -0 1 -0 0.448957 0.893554 -0 
0.425356 0.905025 -0.00106143 0.880885 0.473331 -7.21879e-06 0.546865 -0.837221 -6.53308e-06 
1 -0 -1.11106e-05 1 -0 -0 0.503966 -0.863723 -1.6925e-05 
0.636909 -0.770939 5.53773e-05 0.680065 -0.733152 9.11902e-05 0.603008 -0.797735 8.29262e-05 
0.651582 -0.758578 -6.87208e-05 0.788606 -0.614899 8.7491e-05 0.823679 -0.567057 -0.00016126 
0.847583 -0.530663 -0.000222469 0.878116 -0.478448 7.93167e-05 0.915953 -0.401285 7.5184e-05 
0.884893 -0.465794 7.04323e-05 0.935668 -0.35288 -0.000270388 0.950962 -0.309308 -0.000295261 
0.918345 -0.395781 5.41106e-05 0.992416 -0.122923 -0.000405812 0.992984 0.118247 -0.000573568 
0.992786 -0.119901 -0.000406957 0.949493 -0.313787 2.27624e-05 -0.698004 0.716094 0.000174005 
0.991964 0.126516 -0.000577984 0.86321 0.504844 -0.000370238 1 -0 -0 
1 -0 6.73169e-05 0.979164 0.203072 -0.000709929 -0 -0 1 
0.416302 0.909226 -0.00104187 -0.0335067 0.999438 -1.19887e-05 -0 -0 1 
-1.41743e-17 1 -0.000439225 -0 1 -3.69686e-05 -1 -0 -0 
0.515529 -0.856872 7.52052e-05 0.288721 -0.957413 -1.46812e-05 0.225436 -0.974258 -1.44471e-05 
0.598518 -0.80111 7.64413e-05 0.591303 -0.80645 -0.000109017 0.842251 -0.539086 -0.000221199 
0.80526 -0.592922 7.04436e-05 0.835483 -0.549517 6.72643e-05 0.803624 -0.595138 6.69831e-05 
0.927286 -0.374353 1.73828e-05 0.954712 -0.297531 8.04457e-06 0.984604 -0.174798 4.72719e-05 
0.775043 -0.631908 5.61791e-05 0.706342 0.70787 -0.000843361 -0 -0 1 
-0 1 -0 -0 1 -0 0.497921 0.867222 -0.000785348 
0.056279 -0.998415 -1.41124e-05 0.0996839 -0.995019 -2.43378e-06 0.288238 -0.957559 5.75313e-05 
0.0833448 -0.996521 -2.19137e-05 0.550763 -0.834662 6.58258e-05 0.677039 -0.735947 6.51712e-05 
0.481662 -0.876357 6.03762e-05 0.443757 -0.896147 -0.000141142 0.542056 -0.840342 -0.000179533 
0.211236 -0.977435 -0.000146818 1 -0 -1.2283e-05 0.713982 -0.700164 1.95261e-05 
0.793824 -0.608148 9.21644e-06 0.662413 -0.749139 3.59667e-06 1 -0 1.1625e-05 
0.975655 0.219312 2.1344e-05 1 -0 -0 0.939822 -0.341663 6.96541e-05 
1 -0 -0 1 -0 -0 1 -0 -0 
1 -0 -0 1 -0 -0 1 -0 2.24978e-05 
0.387202 0.921994 -0.000825501 1 -0 2.24653e-05 0.843854 0.536573 -0 
0.840936 0.541135 5.661e-05 0.383098 0.923707 -0.000827 0.361282 0.932456 -0.000822552 
1 -0 -0 0.895731 0.444596 -0.000935933 0.821904 0.569627 -0 
0.901748 0.432262 -2.14271e-05 -0.151922 -0.988392 -1.48619e-05 0.421141 -0.906995 5.84317e-05 
-0.117209 -0.993107 -6.39059e-06 0.0557406 -0.998445 3.99332e-05 -0.140624 -0.990063 -1.97418e-05 
-0.214172 -0.976796 -1.56999e-05 0.12985 -0.991534 -0.000138951 0.100471 -0.99494 3.03306e-05 
0.438523 -0.89872 5.30682e-05 0.529622 -0.848234 8.48865e-06 0.137796 -0.990461 2.38828e-05 
-0.0671455 -0.997743 5.35865e-05 0.754115 -0.656742 0.000115411 -1 -0 4.1107e-06 
-1 -0 7.52409e-06 0.884368 0.466791 -0 0.840675 0.541539 2.17736e-05 
1 -0 -0 0.0519622 0.998649 -0.000746052 1 -0 -0 
1 -0 2.64219e-05 0.83781 0.545963 -0 0.823981 0.566617 -0 
0.819365 0.573272 5.56829e-05 -0.112888 0.993607 -0.000808575 -0.160004 0.987116 -0.000825589 
1 -0 -0 1 -0 -0 1 -0 6.74697e-05 
0.621835 0.783148 -0.000301853 0.701376 0.712792 -3.25192e-05 0.130822 -0.991406 4.62409e-05 
-0.146656 -0.989188 2.43973e-05 -0.32312 -0.946358 -1.72787e-05 -0.222379 -0.97496 -0.000108233 
0.133401 -0.991062 2.7609e-05 0.214701 -0.97668 3.23766e-05 0.291997 -0.956419 1.54953e-05 
-0.242388 -0.970179 -0.000106991 0.319168 -0.947698 0.000104006 0.296826 -0.954931 0.000270479 
0.36525 -0.930909 0.000283322 0.366185 -0.930542 0.000273525 0.432392 -0.901686 0.00028359 
-0.288003 -0.95763 0.000335282 -0.992399 -0.123062 -0 -0.572948 -0.819592 0.000304866 
-1 -0 1.03209e-07 1 1.47062e-17 -0.000348744 0.997958 0.0638751 -0 
0.355045 -0.934849 0.000285511 -0.317357 0.948306 -0.000625473 -0.395957 0.918269 -0.000592007 
-0.501446 -0.865189 1.72393e-05 0.823158 0.567813 -0 0.823559 0.567231 2.29989e-05 
-0.434066 0.900881 -0.000690694 -0.49558 0.868562 -0.00079908 1 -0 2.78869e-05 
-0 1 -0 -0 1 -0 -0 1 -0 
-0.213575 0.976927 -0.000419369 -0 1 -4.86491e-05 -0.111345 -0.993782 3.24624e-05 
-0.313319 -0.949648 1.12906e-05 -0.462714 -0.886508 -2.13563e-05 -0.036937 -0.999318 2.21643e-05 
-0.00629595 -0.99998 2.36344e-05 0.0581485 -0.998308 1.72258e-05 -0.479377 -0.877609 -6.35416e-05 
-0.489791 -0.87184 -9.25705e-05 0.311163 -0.950356 0.000127766 0.577775 -0.816196 0.000209192 
0.630745 -0.77599 0.000191912 0.733155 -0.680062 0.000223102 0.798201 -0.602391 0.000249533 
0.0843687 -0.996435 0.000471617 0.82971 -0.558194 0.000270558 -0.63728 0.770632 -0.000454833 
-0.816286 0.577647 -0.000294706 0.0578093 -0.998327 0.000722101 0.298207 -0.954501 0.00068273 
0.840683 -0.541528 0.000275872 -0.663835 0.747879 -0.000463213 -0.818683 -0.574246 9.25966e-07 
0.355466 -0.934689 -0.000124218 -0 1 -0 -0.22625 -0.974069 0.000363138 
-0.741693 0.670739 -0.000521485 0.395265 -0.918567 4.57809e-05 -0 1 0.000196588 
-0.794478 0.607292 -0.000611505 -0 1 -0 -0.860188 0.509976 -0 
-0 1 -0 -0.207432 0.978249 2.8299e-05 -0 1 -0 
-0 1 -0 -0.427129 0.904191 -0.000386955 -0 1 -5.5077e-05 
-0.309198 -0.950998 1.92706e-05 -0.460982 -0.887409 -1.08359e-07 -0.588971 -0.808154 -2.58343e-05 
-0.217239 -0.976118 1.53825e-05 -0.242231 -0.970219 1.85887e-05 -0.142898 -0.989737 1.69763e-05 
-0.402121 -0.915587 1.27086e-05 -0.531958 -0.846771 -5.03406e-06 -0.605318 -0.795984 -3.27504e-05 
-0.623784 -0.781597 -2.74249e-05 -0.705626 -0.708584 -8.44587e-05 0.313407 -0.949619 0.000151347 
0.434799 -0.900527 0.000180322 0.351482 -0.936195 0.00016661 -0.772832 -0.63461 -8.3815e-05 
0.590777 -0.806835 0.000183332 0.72334 -0.690492 0.00020707 0.805502 -0.592593 0.000233452 
-0.832209 0.554462 -0.000279902 -0.92772 0.373276 -0.00018367 0.272807 -0.962069 0.00030916 
0.831419 -0.555646 0.000246323 -0.833891 0.551928 -0.000280702 0.361362 -0.932425 0.000917684 
0.312354 -0.949966 0.000680449 0.83315 -0.553047 0.000236673 -0.873424 0.48696 -0.000310442 
0.4994 -0.866371 0.00127503 0.620003 -0.784599 0.00109109 -0 1 -0 
0.823894 -0.566745 0.000204815 0.892335 -0.451375 0.000125017 0.814956 -0.579523 0.000180565 
-0.910324 0.413897 -0.000351433 -0.805517 -0.592572 9.58946e-07 -0 1 -0 
-0 1 -0 -0.940733 0.339147 -0.000403113 -0 1 -0 
0.785818 0.618458 -0 -0.988621 0.150427 -0.000477603 0.737259 0.67561 -0 
0.259947 -0.965623 0.000152175 -0.389696 -0.920943 8.67258e-06 -0.339344 -0.940662 1.58143e-05 
-0.495346 -0.868695 6.38041e-06 -0.614685 -0.788773 -1.03204e-05 -0.730563 -0.682845 -3.20438e-05 
0.284817 -0.958582 0.000151838 -0.506625 -0.862167 3.77252e-06 -0.811333 -0.584584 -5.14094e-05 
-0.823748 -0.566956 -3.68162e-05 -0.951988 -0.306137 -9.12136e-05 0.486639 -0.873603 0.000169855 
-0.973009 -0.230769 -9.33045e-05 0.663046 -0.748579 0.000204668 -0.976711 0.214559 -0.000143834 
-0.991642 0.129019 -0.000125904 0.77668 -0.629896 0.000224379 -0.954059 0.29962 -0.000154983 
0.271291 -0.962497 0.000163951 0.812812 -0.582526 0.000222209 -0.952504 0.304526 -0.000177512 
0.624677 -0.780883 0.000569654 0.322731 -0.94649 0.000682171 0.814593 -0.580033 0.000198438 
0.811722 -0.584044 0.000178789 0.804153 -0.594423 0.000178337 -0.964581 0.263787 -0.000203792 
0.818683 -0.574246 1.2087e-06 0.741436 0.671024 -0.000137402 -0 1 -4.93676e-05 
0.817568 -0.575832 0.000173521 -0.977097 0.212796 -0.000234679 -0.57041 -0.82136 0.000517071 
-0 1 -0 -0.827845 0.560958 2.82711e-05 0.77708 0.629401 -0 
0.811911 0.583781 2.53753e-05 -0.986968 0.160915 -0.00026786 -0 1 -0 
-0 1 0.000101097 -0.993973 0.109627 -0.00030169 -0 1 -0 
-0.997209 0.074661 -0.000609704 0.677667 0.735368 -0 1 -0 -4.85464e-05 
0.0732346 -0.997315 0.000124285 -0.538065 -0.842903 1.28668e-05 -0.685744 -0.727843 -6.05133e-06 
-0.776204 -0.630482 -1.99831e-05 0.11772 -0.993047 0.000126777 -0.403116 -0.915149 3.57864e-05 
-0.550482 -0.834847 4.46684e-06 -0.561778 -0.827288 1.89728e-06 -0.621637 -0.783305 1.06674e-05 
-0.755463 -0.655191 -1.16681e-05 -0.798121 -0.602497 -2.35889e-05 -0.789404 -0.613874 -2.09025e-05 
-0.894224 -0.44762 -4.11655e-05 0.310731 -0.950498 0.000156942 -0.919036 -0.394174 -2.97757e-05 
-0.95369 -0.300792 -5.26143e-05 -0.941505 -0.336999 -4.63829e-05 0.562689 -0.826669 0.000195127 
-0.998685 -0.0512762 -7.58315e-05 -0.984957 -0.172798 -5.87138e-05 0.733179 -0.680036 0.000206804 
-0.997201 0.0747717 -9.7133e-05 -0.996839 -0.0794532 -7.35698e-05 0.138528 -0.990359 -3.88471e-05 
0.790122 -0.61295 0.000192348 0.796021 -0.605269 0.000176186 0.783767 -0.621055 0.000172598 
-0.994602 0.103768 -0.000118443 -0.999111 -0.0421533 -8.93645e-05 1 -0 7.95097e-07 
-0.415171 -0.909743 -4.53086e-05 -1 -0 -5.86974e-05 0.804347 -0.594159 0.000175313 
-0.995876 0.0907219 -0.000140636 -0.999171 -0.0407117 -0.000106241 -0 -0 1 
-0.914741 -0.404041 -6.45737e-05 -0 1 -0 -1 -0 -2.85607e-05 
0.942858 -0.333195 0.000183259 -0.997913 0.0645762 -0.000164858 -0.829822 0.558029 -0 
-0.889926 0.456106 2.21403e-05 -0.999285 0.037809 -0.000189811 -0 -0 1 
-0 1 -0 -1 -0 -0 -0 1 -0 
-1 -0 -0 -0 1 -0 -0.874102 0.485743 1.09e-05 
-0 1 9.59581e-05 -0.999908 0.0135539 -0.000214236 -0 1 5.25756e-05 
-0.999958 -0.00921793 -0.000237168 -0 -0.99981 -0.0194889 -0 1 -0 
-0.98712 0.159981 -0 0.645871 -0.763443 0.00242554 0.391102 -0.920346 0.00150895 
0.884203 -0.467102 0.00131744 -0 0.999999 -0.0013408 -0.090515 -0.995895 9.35429e-05 
-0.0517331 -0.998661 9.82993e-05 -0.306021 -0.952025 6.31809e-05 -0.719917 -0.694061 -4.62602e-06 
-0.71147 -0.702716 8.11156e-06 -0.858367 -0.513037 -1.99211e-05 0.145433 -0.989368 0.000133805 