# vtk DataFile Version 4.2
vtk output
ASCII
DATASET POLYDATA
POINTS 1575 double
0.53376707167 0.31971494457 0 0.53386111259 0.3199679147 -2.0870885924 0.53368252134 0.3199679147 0 
0.53386111259 0.31965875161 -0.99845500419 0.53384911613 0.31948515511 0 0.53379727835 0.31748076792 -5 
0.53385396975 0.31767074161 0 0.53376004385 0.31748076792 0 0.53386111259 0.31754892865 -5 
0.53393422496 0.31926101873 0 0.53411432342 0.3193350598 -1.935221095 0.53412277885 0.31965875161 -3.0918337391 
0.53403171911 0.31900702094 0 0.53423604147 0.31903420878 -2.0050237879 0.53413596248 0.31872830546 0 
0.53426522796 0.31872768446 -1.7183767082 0.53414452525 0.31841715845 0 0.53424321233 0.31841787684 -1.8171629209 
0.5340478179 0.31813476148 0 0.53421276945 0.31813970561 -2.9217434578 0.53404793737 0.31785273049 -2.9209568079 
0.53415181011 0.3177291644 -6.0081383916 0.53423588089 0.31797493755 -4.5964411848 0.5339492526 0.31788265166 0 
0.53386111259 0.31737317629 -7.1815557853 0.53411630237 0.31744657733 -8.5828503292 0.53388460261 0.31716764187 -10 
0.5341666672 0.31716764187 -10.844515835 0.53418941422 0.31734211917 -9.9041901314 0.53386111259 0.31716764187 -9.7721829299 
0.5344722218 0.319420461 -5 0.53437229651 0.31965875161 -5 0.5344722218 0.31934908186 -4.8388078778 
0.5344722218 0.31903893985 -4.1628614116 0.5344722218 0.31872830546 -3.8827147221 0.53439732693 0.31838021987 -3.9345424358 
0.53435655554 0.31816436053 -4.5917244454 0.53446137955 0.31806973596 -6.0583170734 0.53450532994 0.31831135607 -5.1920139463 
0.53445710098 0.31776420038 -8.10295739 0.53435352066 0.3175113112 -9.456365345 0.53442049081 0.3173885178 -10.542684744 
0.5345771279 0.31761099871 -9.8385779348 0.53446003552 0.31715177078 -12.031339756 0.5341666672 0.31685401148 -12.53457259 
0.5344722218 0.31685401148 -13.85990511 0.5341666672 0.31400822888 -0.075890944804 0.53446988903 0.31394006751 0 
0.5344722218 0.31400822888 -1.6677463533 0.5341666672 0.31400437526 0 0.53450196267 0.31934908186 -5 
0.5344722218 0.31965875161 -5.2554540938 0.53477777905 0.31934908186 -5.8082720701 0.53477777905 0.31965875161 -5.9917573097 
0.53458382011 0.3185331505 -5.0486828919 0.53483970038 0.31872830546 -5.9412032174 0.53459985835 0.31872830546 -5 
0.53476012154 0.31841213307 -6.3776559921 0.53476425992 0.31810287003 -7.7704469706 0.53476104366 0.31785129525 -9.2272275234 
0.53474156857 0.31746980607 -11.304809057 0.53480626946 0.31771538546 -10.223465668 0.53476215181 0.31713576352 -13.356004495 
0.53465979024 0.31682303239 -15 0.53484405657 0.31693860501 -15 0.5344722218 0.31670481681 -15 
0.5344722218 0.31432650992 -6.0757281817 0.53469830519 0.31414992403 -4.5954877776 0.53477777905 0.31432650992 -7.0558610426 
0.5344722218 0.31416762272 -5 0.53486270703 0.31398850253 -2.3949349531 0.53476598511 0.3138781119 0 
0.53510502157 0.31872830546 -6.9364491106 0.53507690409 0.31841576467 -7.8512539083 0.53504655076 0.31810758168 -9.1250065749 
0.53494233409 0.31787312007 -9.9280156147 0.53506482227 0.31776712587 -10.916486633 0.53513049176 0.31798284703 -10.103037116 
0.53506774034 0.31747445394 -12.51366492 0.53505421377 0.31720390679 -14.128250434 0.53503517676 0.31705911185 -15 
0.53477777905 0.31500283598 -15 0.53477777905 0.31496146762 -14.799494931 0.53484188852 0.31484031106 -15 
0.53477777905 0.31464424922 -11.892684571 0.53491861607 0.31464424922 -15 0.53508333365 0.31437306868 -10 
0.53477777905 0.31458118768 -10 0.53508333365 0.31424551308 -7.7076571466 0.53508333365 0.31409553704 -5 
0.53516544117 0.31395729665 -2.8434541804 0.53503866757 0.31381405145 0 0.53538888825 0.31872830546 -7.9626747111 
0.53538888825 0.31841715845 -9.0324782058 0.53526441735 0.31814727374 -9.8289474495 0.53538888825 0.31802001236 -10.859768132 
0.53538888825 0.31822294196 -10 0.53538888825 0.31779340998 -11.836536106 0.53535435407 0.31745801624 -13.796974517 
0.53522219865 0.31718024459 -15 0.5354087036 0.3173066196 -15 0.53508333365 0.31653985627 -17.049288752 
0.53508333365 0.3162248457 -17.139161588 0.53538888825 0.31653985627 -18.690067598 0.53538888825 0.31622497873 -18.781606385 
0.53508333365 0.31590958764 -17.097957468 0.53538888825 0.31591003687 -18.837091687 0.53508333365 0.31559400042 -16.89656018 
0.53537694114 0.3155016463 -18.449298432 0.53508333365 0.31527818578 -16.594751747 0.53538446412 0.31527818578 -18.277549973 
0.53538888825 0.31404439177 -5 0.53538888825 0.31400822888 -4.3141846433 0.53526275032 0.31374885672 0 
0.53562272727 0.31841715845 -10 0.53559086655 0.31743787358 -15 0.53576192466 0.31757056583 -15 
0.53569444434 0.31779340998 -13.292986514 0.53538888825 0.31685401148 -18.16945442 0.53556391375 0.31653985627 -20 
0.53558882018 0.31685401148 -20 0.53562739973 0.31559414261 -20 0.53557173735 0.31591003687 -20 
0.53568436995 0.31527818578 -20 0.5354355806 0.31368944133 0 0.5356944455 0.31368944133 -1.5248417005 
0.5356944455 0.31396892228 -5 0.53552727134 0.31400822888 -5 0.53600000011 0.31779340998 -14.78637227 
0.53593627769 0.31771574918 -15 0.5356944455 0.31522859011 -20 0.5356944455 0.31496146762 -19.616377412 
0.53575302814 0.31496146762 -20 0.53597188323 0.31305026331 0 0.53600000011 0.31298896958 0 
0.53600000011 0.31305026331 -0.2195474908 0.53611285795 0.3178719088 -15 0.53630555471 0.31804866361 -15 
0.53630555471 0.31810553337 -14.642465551 0.53600000011 0.31810553337 -13.002586309 0.5366111108 0.31716764187 -29.450020261 
0.53630555471 0.31716764187 -29.387937821 0.53630555471 0.31708927224 -30 0.53661111196 0.31708868124 -30 
0.53630555471 0.31685401148 -30.388657244 0.53630555471 0.31653985627 -30.791036105 0.53661111196 0.31685401148 -30.410438636 
0.5366111108 0.31653985627 -30.824565202 0.53682610751 0.3168190766 -30.407332951 0.53699726207 0.31703215251 -29.90405444 
0.53691666656 0.31716764187 -29.497617205 0.53691666656 0.31653985627 -30.858475981 0.53691666656 0.31748076792 -27.776832906 
0.53722222202 0.31748076792 -27.799950764 0.53724488657 0.3172288279 -29.053883063 0.5371295248 0.31680541575 -30.392198293 
0.53731494338 0.31702730428 -29.828309361 0.53719786922 0.31652734532 -30.841593741 0.53691666656 0.31622487446 -31.198347379 
0.53721716434 0.31622239037 -31.256164316 0.53691666656 0.3159097073 -31.545668869 0.53722139213 0.31590936342 -31.672981187 
0.53691666656 0.31559436863 -31.902341 0.537222222 0.31559436863 -32.134032725 0.53752777758 0.31748076792 -27.826340575 
0.53755392621 0.31723371044 -28.993964929 0.53743367016 0.31680011374 -30.384400492 0.53762188609 0.31702286236 -29.820118848 
0.53750055772 0.31652511425 -30.873495434 0.53752204487 0.31622198816 -31.344337361 0.53752686139 0.3159093283 -31.82950287 
0.53752777748 0.31559436863 -32.368343913 0.53783333302 0.31748076792 -27.861154411 0.53785989152 0.31723292656 -29.034654658 
0.53773908914 0.31679822368 -30.399638672 0.53792769946 0.31702255231 -29.854389625 0.537806059 0.31652500935 -30.920062334 
0.5378277828 0.31622212929 -31.438526325 0.53783252928 0.31590938785 -31.98759914 0.53783333267 0.31559436863 -32.604282899 
0.53783333302 0.31779340998 -26.670492866 0.53813888762 0.31779340998 -26.861252636 0.53813888762 0.31748076792 -28.028327102 
0.53816539681 0.31723398197 -29.154009997 0.53804578878 0.31680029744 -30.436373668 0.53823400603 0.31702922411 -29.928088178 
0.53811378348 0.31652670968 -30.976538302 0.53813475283 0.3162228234 -31.534258165 0.53813838759 0.31590953022 -32.145321142 
0.53813888762 0.31559436863 -32.840105047 0.5384444437 0.31748076792 -28.272999342 0.53846874087 0.31723124629 -29.359143751 
0.53836219364 0.31680919446 -30.492852257 0.5385374179 0.31704590434 -30.044751477 0.53843158478 0.31653224975 -31.040114751 
0.5384428315 0.31622406323 -31.633809892 0.53844427237 0.31590966183 -32.315287733 0.53844443113 0.31559409645 -33.159718907 
0.53813888762 0.31527795066 -33.919143651 0.53844444487 0.31527818578 -34.132075119 0.53813888762 0.31496146762 -35.037286288 
0.53844444487 0.31496146762 -35.542862581 0.53844444487 0.3211997569 -11.322843765 0.53844444487 0.32089251047 -11.301719714 
0.53874999947 0.3211997569 -11.329555594 0.53874999947 0.32089251047 -11.308500203 0.53874999947 0.31748076792 -28.52217629 
0.53874999947 0.31716764187 -29.906146239 0.53874999947 0.31684482275 -30.543739429 0.53874999947 0.31714724574 -30 
0.53874999947 0.31653985627 -31.089726241 0.53874985851 0.31622486485 -31.751040055 0.53874997652 0.31590970762 -32.506532636 
0.53874999728 0.3155940978 -33.446863606 0.53874999981 0.31527818578 -34.642644081 0.53874999947 0.32211859412 -7.7431698234 
0.53874999947 0.32181277886 -7.7648123438 0.53905555407 0.32211859412 -7.4716850597 0.53905555407 0.32181277886 -7.4982791873 
0.5388489108 0.31716764187 -30 0.53905555493 0.31653985627 -31.212890916 0.53905554355 0.31622493239 -31.904633572 
0.53905555258 0.31590971982 -32.740285385 0.53905555465 0.3155941016 -33.825740885 0.53905555501 0.31527818578 -35.249092233 
0.53936111049 0.31653985627 -31.356344996 0.53936110971 0.31622496543 -32.101760708 0.53936111035 0.31590975179 -33.048674283 
0.5393611105 0.31559410917 -34.323431017 0.53936111041 0.31527818578 -36.013406373 0.53966666592 0.31653985627 -31.519159926 
0.53966666592 0.31622521106 -32.275019898 0.5396666657 0.3159097847 -33.462927048 0.53966666566 0.31559413748 -34.940882748 
0.53966666559 0.31527818578 -36.942337948 0.53997222053 0.31622521106 -32.620351406 0.53997222053 0.31590981988 -33.989911066 
0.53997222053 0.31559436863 -35.422034769 0.53997222053 0.31527818578 -37.974465388 0.54027777778 0.31559436863 -36.29026097 
0.54027777778 0.31539023142 -38.28418202 0.53997222053 0.3151002019 -40 0.54027777778 0.31521710916 -40 
0.54027777778 0.31432650992 -47.744356321 0.54027777778 0.31400822888 -48.562064162 0.5405833327 0.31432650992 -48.326904079 
0.54058333503 0.31400822888 -49.05614436 0.54088888698 0.31432650992 -48.914162046 0.54084353533 0.31399855772 -49.588028034 
0.54068215056 0.31368944133 -50 0.54088888698 0.31384417843 -50 0.54058333503 0.31378112196 -49.568744894 
[...]
CELL_DATA 2268
FIELD FieldData 1
vtkGhostType 1 2268 unsigned_char
0 0 0 0 0 0 0 0 0 
0 0 0 0 0 0 0 0 0 
0 0 0 0 0 0 0 0 0 
0 0 0 0 0 0 0 0 0 
0 0 0 0 0 0 0 0 0 
0 0 0 0 0 0 0 0 0 
0 0 0 0 0 0 0 0 0 
0 0 0 0 0 0 0 0 0 
0 0 0 0 0 0 0 0 0 
0 0 0 0 0 0 0 0 0 
0 0 0 0 0 0 0 0 0 
0 0 0 0 0 0 0 0 0 
0 0 0 0 0 0 0 0 0 
0 0 0 0 0 0 0 0 0 
0 0 0 0 0 0 0 0 0 
0 0 0 0 0 0 0 0 0 
0 0 0 0 0 0 0 0 0 
0 0 0 0 0 0 0 0 0 
0 0 0 0 0 0 0 0 0 
0 0 0 0 0 0 0 0 0 
0 0 0 0 0 0 0 0 0 
0 0 0 0 0 0 0 0 0 
0 0 0 0 0 0 0 0 0 
0 0 0 0 0 0 0 0 0 
0 0 0 0 0 0 0 0 0 
0 0 0 0 0 0 0 0 0 
0 0 0 0 0 0 0 0 0 
0 0 0 0 0 0 0 0 0 
0 0 0 0 0 0 0 0 0 
0 0 0 0 0 0 0 0 0 
0 0 0 0 0 0 0 0 0 
0 0 0 0 0 0 0 0 0 
0 0 0 0 0 0 0 0 0 
0 0 0 0 0 0 0 0 0 
0 0 0 0 0 0 0 0 0 
0 0 0 0 0 0 0 0 0 
0 0 0 0 0 0 0 0 0 
0 0 0 0 0 0 0 0 0 
0 0 0 0 0 0 0 0 0 
0 0 0 0 0 0 0 0 0 
0 0 0 0 0 0 0 0 0 
0 0 0 0 0 0 0 0 0 
0 0 0 0 0 0 0 0 0 
0 0 0 0 0 0 0 0 0 
0 0 0 0 0 0 0 0 0 
0 0 0 0 0 0 0 0 0 
0 0 0 0 0 0 0 0 0 
0 0 0 0 0 0 0 0 0 
0 0 0 0 0 0 0 0 0 
0 0 0 0 0 0 0 0 0 
0 0 0 0 0 0 0 0 0 
0 0 0 0 0 0 0 0 0 
0 0 0 0 0 0 0 0 0 
0 0 0 0 0 0 0 0 0 
0 0 0 0 0 0 0 0 0 
0 0 0 0 0 0 0 0 0 
0 0 0 0 0 0 0 0 0 
0 0 0 0 0 0 0 0 0 
0 0 0 0 0 0 0 0 0 
0 0 0 0 0 0 0 0 0 
0 0 0 0 0 0 0 0 0 
0 0 0 0 0 0 0 0 0 
0 0 0 0 0 0 0 0 0 
0 0 0 0 0 0 0 0 0 
0 0 0 0 0 0 0 0 0 
0 0 0 0 0 0 0 0 0 
0 0 0 0 0 0 0 0 0 
0 0 0 0 0 0 0 0 0 
0 0 0 0 0 0 0 0 0 
0 0 0 0 0 0 0 0 0 
0 0 0 0 0 0 0 0 0 
0 0 0 0 0 0 0 0 0 
0 0 0 0 0 0 0 0 0 
0 0 0 0 0 0 0 0 0 
0 0 0 0 0 0 0 0 0 
0 0 0 0 0 0 0 0 0 
0 0 0 0 0 0 0 0 0 
0 0 0 0 0 0 0 0 0 
0 0 0 0 0 0 0 0 0 
0 0 0 0 0 0 0 0 0 
0 0 0 0 0 0 0 0 0 
0 0 0 0 0 0 0 0 0 
0 0 0 0 0 0 0 0 0 
0 0 0 0 0 0 0 0 0 
0 0 0 0 0 0 0 0 0 
0 0 0 0 0 0 0 0 0 
0 0 0 0 0 0 0 0 0 
0 0 0 0 0 0 0 0 0 
0 0 0 0 0 0 0 0 0 
0 0 0 0 0 0 0 0 0 
0 0 0 0 0 0 0 0 0 
0 0 0 0 0 0 0 0 0 
0 0 0 0 0 0 0 0 0 
0 0 0 0 0 0 0 0 0 
0 0 0 0 0 0 0 0 0 
0 0 0 0 0 0 0 0 0 
0 0 0 0 0 0 0 0 0 
0 0 0 0 0 0 0 0 0 
0 0 0 0 0 0 0 0 0 
0 0 0 0 0 0 0 0 0 
0 0 0 0 0 0 0 0 0 
0 0 0 0 0 0 0 0 0 
0 0 0 0 0 0 0 0 0 
0 0 0 0 0 0 0 0 0 
0 0 0 0 0 0 0 0 0 
0 0 0 0 0 0 0 0 0 
0 0 0 0 0 0 0 0 0 
0 0 0 0 0 0 0 0 0 
0 0 0 0 0 0 0 0 0 
0 0 0 0 0 0 0 0 0 
0 0 0 0 0 0 0 0 0 
0 0 0 0 0 0 0 0 0 
0 0 0 0 0 0 0 0 0 
0 0 0 0 0 0 0 0 0 
0 0 0 0 0 0 0 0 0 
0 0 0 0 0 0 0 0 0 
0 0 0 0 0 0 0 0 0 
0 0 0 0 0 0 0 0 0 
0 0 0 0 0 0 0 0 0 
0 0 0 0 0 0 0 0 0 
0 0 0 0 0 0 0 0 0 
0 0 0 0 0 0 0 0 0 
0 0 0 0 0 0 0 0 0 
0 0 0 0 0 0 0 0 0 
0 0 0 0 0 0 0 0 0 
0 0 0 0 0 0 0 0 0 
0 0 0 0 0 0 0 0 0 
0 0 0 0 0 0 0 0 0 
0 0 0 0 0 0 0 0 0 
0 0 0 0 0 0 0 0 0 
0 0 0 0 0 0 0 0 0 
0 0 0 0 0 0 0 0 0 
0 0 0 0 0 0 0 0 0 
0 0 0 0 0 0 0 0 0 
0 0 0 0 0 0 0 0 0 
0 0 0 0 0 0 0 0 0 
0 0 0 0 0 0 0 0 0 
0 0 0 0 0 0 0 0 0 
0 0 0 0 0 0 0 0 0 
0 0 0 0 0 0 0 0 0 
0 0 0 0 0 0 0 0 0 
0 0 0 0 0 0 0 0 0 
0 0 0 0 0 0 0 0 0 
0 0 0 0 0 0 0 0 0 
0 0 0 0 0 0 0 0 0 
0 0 0 0 0 0 0 0 0 
0 0 0 0 0 0 0 0 0 
0 0 0 0 0 0 0 0 0 
0 0 0 0 0 0 0 0 0 
0 0 0 0 0 0 0 0 0 
0 0 0 0 0 0 0 0 0 
0 0 0 0 0 0 0 0 0 
0 0 0 0 0 0 0 0 0 
0 0 0 0 0 0 0 0 0 
0 0 0 0 0 0 0 0 0 
0 0 0 0 0 0 0 0 0 
0 0 0 0 0 0 0 0 0 
0 0 0 0 0 0 0 0 0 
0 0 0 0 0 0 0 0 0 
0 0 0 0 0 0 0 0 0 
0 0 0 0 0 0 0 0 0 
0 0 0 0 0 0 0 0 0 
0 0 0 0 0 0 0 0 0 
0 0 0 0 0 0 0 0 0 
0 0 0 0 0 0 0 0 0 
0 0 0 0 0 0 0 0 0 
0 0 0 0 0 0 0 0 0 
0 0 0 0 0 0 0 0 0 
0 0 0 0 0 0 0 0 0 
0 0 0 0 0 0 0 0 0 
0 0 0 0 0 0 0 0 0 
0 0 0 0 0 0 0 0 0 
0 0 0 0 0 0 0 0 0 
0 0 0 0 0 0 0 0 0 
0 0 0 0 0 0 0 0 0 
0 0 0 0 0 0 0 0 0 
0 0 0 0 0 0 0 0 0 
0 0 0 0 0 0 0 0 0 
0 0 0 0 0 0 0 0 0 
0 0 0 0 0 0 0 0 0 
0 0 0 0 0 0 0 0 0 
0 0 0 0 0 0 0 0 0 
0 0 0 0 0 0 0 0 0 
0 0 0 0 0 0 0 0 0 
0 0 0 0 0 0 0 0 0 
0 0 0 0 0 0 0 0 0 
0 0 0 0 0 0 0 0 0 
0 0 0 0 0 0 0 0 0 
0 0 0 0 0 0 0 0 0 
0 0 0 0 0 0 0 0 0 
0 0 0 0 0 0 0 0 0 
0 0 0 0 0 0 0 0 0 
0 0 0 0 0 0 0 0 0 
0 0 0 0 0 0 0 0 0 
0 0 0 0 0 0 0 0 0 
0 0 0 0 0 0 0 0 0 
0 0 0 0 0 0 0 0 0 
0 0 0 0 0 0 0 0 0 
0 0 0 0 0 0 0 0 0 
0 0 0 0 0 0 0 0 0 
0 0 0 0 0 0 0 0 0 
0 0 0 0 0 0 0 0 0 
0 0 0 0 0 0 0 0 0 
0 0 0 0 0 0 0 0 0 
0 0 0 0 0 0 0 0 0 
0 0 0 0 0 0 0 0 0 
0 0 0 0 0 0 0 0 0 
0 0 0 0 0 0 0 0 0 
0 0 0 0 0 0 0 0 0 
0 0 0 0 0 0 0 0 0 
0 0 0 0 0 0 0 0 0 
0 0 0 0 0 0 0 0 0 
0 0 0 0 0 0 0 0 0 
0 0 0 0 0 0 0 0 0 
0 0 0 0 0 0 0 0 0 
0 0 0 0 0 0 0 0 0 
0 0 0 0 0 0 0 0 0 
0 0 0 0 0 0 0 0 0 
0 0 0 0 0 0 0 0 0 
0 0 0 0 0 0 0 0 0 
0 0 0 0 0 0 0 0 0 
0 0 0 0 0 0 0 0 0 
0 0 0 0 0 0 0 0 0 
0 0 0 0 0 0 0 0 0 
0 0 0 0 0 0 0 0 0 
0 0 0 0 0 0 0 0 0 
0 0 0 0 0 0 0 0 0 
0 0 0 0 0 0 0 0 0 
0 0 0 0 0 0 0 0 0 
0 0 0 0 0 0 0 0 0 
0 0 0 0 0 0 0 0 0 
0 0 0 0 0 0 0 0 0 
0 0 0 0 0 0 0 0 0 
0 0 0 0 0 0 0 0 0 
0 0 0 0 0 0 0 0 0 
0 0 0 0 0 0 0 0 0 
0 0 0 0 0 0 0 0 0 
0 0 0 0 0 0 0 0 0 
0 0 0 0 0 0 0 0 0 
0 0 0 0 0 0 0 0 0 
0 0 0 0 0 0 0 0 0 
0 0 0 0 0 0 0 0 0 
0 0 0 0 0 0 0 0 0 
0 0 0 0 0 0 0 0 0 
0 0 0 0 0 0 0 0 0 
0 0 0 0 0 0 0 0 0 
0 0 0 0 0 0 0 0 0 
0 0 0 0 0 0 0 0 0 
0 0 0 0 0 0 0 0 0 
0 0 0 0 0 0 0 0 0 
0 0 0 0 0 0 0 0 0 
0 0 0 0 0 0 0 0 0 

POINT_DATA 1575
SCALARS scalars float
LOOKUP_TABLE default
10 10 10 10 10 10 10 10 10 
10 10 10 10 10 10 10 10 10 
10 10 10 10 10 10 10 10 10 
10 10 10 10 10 10 10 10 10 
10 10 10 10 10 10 10 10 10 
10 10 10 10 10 10 10 10 10 
10 10 10 10 10 10 10 10 10 
10 10 10 10 10 10 10 10 10 
10 10 10 10 10 10 10 10 10 
10 10 10 10 10 10 10 10 10 
10 10 10 10 10 10 10 10 10 
10 10 10 10 10 10 10 10 10 
10 10 10 10 10 10 10 10 10 
10 10 10 10 10 10 10 10 10 
10 10 10 10 10 10 10 10 10 
10 10 10 10 10 10 10 10 10 
10 10 10 10 10 10 10 10 10 
10 10 10 10 10 10 10 10 10 
10 10 10 10 10 10 10 10 10 
10 10 10 10 10 10 10 10 10 
10 10 10 10 10 10 10 10 10 
10 10 10 10 10 10 10 10 10 
10 10 10 10 10 10 10 10 10 
10 10 10 10 10 10 10 10 10 
10 10 10 10 10 10 10 10 10 
10 10 10 10 10 10 10 10 10 
10 10 10 10 10 10 10 10 10 
10 10 10 10 10 10 10 10 10 
10 10 10 10 10 10 10 10 10 
10 10 10 10 10 10 10 10 10 
10 10 10 10 10 10 10 10 10 
10 10 10 10 10 10 10 10 10 
10 10 10 10 10 10 10 10 10 
10 10 10 10 10 10 10 10 10 
10 10 10 10 10 10 10 10 10 
10 10 10 10 10 10 10 10 10 
10 10 10 10 10 10 10 10 10 
10 10 10 10 10 10 10 10 10 
10 10 10 10 10 10 10 10 10 
10 10 10 10 10 10 10 10 10 
10 10 10 10 10 10 10 10 10 
10 10 10 10 10 10 10 10 10 
10 10 10 10 10 10 10 10 10 
10 10 10 10 10 10 10 10 10 
10 10 10 10 10 10 10 10 10 
10 10 10 10 10 10 10 10 10 
10 10 10 10 10 10 10 10 10 
10 10 10 10 10 10 10 10 10 
10 10 10 10 10 10 10 10 10 
10 10 10 10 10 10 10 10 10 
10 10 10 10 10 10 10 10 10 
10 10 10 10 10 10 10 10 10 
10 10 10 10 10 10 10 10 10 
10 10 10 10 10 10 10 10 10 
10 10 10 10 10 10 10 10 10 
10 10 10 10 10 10 10 10 10 
10 10 10 10 10 10 10 10 10 
10 10 10 10 10 10 10 10 10 
10 10 10 10 10 10 10 10 10 
10 10 10 10 10 10 10 10 10 
10 10 10 10 10 10 10 10 10 
10 10 10 10 10 10 10 10 10 
10 10 10 10 10 10 10 10 10 
10 10 10 10 10 10 10 10 10 
10 10 10 10 10 10 10 10 10 
10 10 10 10 10 10 10 10 10 
10 10 10 10 10 10 10 10 10 
10 10 10 10 10 10 10 10 10 
10 10 10 10 10 10 10 10 10 
10 10 10 10 10 10 10 10 10 
10 10 10 10 10 10 10 10 10 
10 10 10 10 10 10 10 10 10 
10 10 10 10 10 10 10 10 10 
10 10 10 10 10 10 10 10 10 
10 10 10 10 10 10 10 10 10 
10 10 10 10 10 10 10 10 10 
10 10 10 10 10 10 10 10 10 
10 10 10 10 10 10 10 10 10 
10 10 10 10 10 10 10 10 10 
10 10 10 10 10 10 10 10 10 
10 10 10 10 10 10 10 10 10 
10 10 10 10 10 10 10 10 10 
10 10 10 10 10 10 10 10 10 
10 10 10 10 10 10 10 10 10 
10 10 10 10 10 10 10 10 10 
10 10 10 10 10 10 10 10 10 
10 10 10 10 10 10 10 10 10 
10 10 10 10 10 10 10 10 10 
10 10 10 10 10 10 10 10 10 
10 10 10 10 10 10 10 10 10 
10 10 10 10 10 10 10 10 10 
10 10 10 10 10 10 10 10 10 
10 10 10 10 10 10 10 10 10 
10 10 10 10 10 10 10 10 10 
10 10 10 10 10 10 10 10 10 
10 10 10 10 10 10 10 10 10 
10 10 10 10 10 10 10 10 10 
10 10 10 10 10 10 10 10 10 
10 10 10 10 10 10 10 10 10 
10 10 10 10 10 10 10 10 10 
10 10 10 10 10 10 10 10 10 
10 10 10 10 10 10 10 10 10 
10 10 10 10 10 10 10 10 10 
10 10 10 10 10 10 10 10 10 
10 10 10 10 10 10 10 10 10 
10 10 10 10 10 10 10 10 10 
10 10 10 10 10 10 10 10 10 
10 10 10 10 10 10 10 10 10 
10 10 10 10 10 10 10 10 10 
10 10 10 10 10 10 10 10 10 
10 10 10 10 10 10 10 10 10 
10 10 10 10 10 10 10 10 10 
10 10 10 10 10 10 10 10 10 
10 10 10 10 10 10 10 10 10 
10 10 10 10 10 10 10 10 10 
10 10 10 10 10 10 10 10 10 
10 10 10 10 10 10 10 10 10 
10 10 10 10 10 10 10 10 10 
10 10 10 10 10 10 10 10 10 
10 10 10 10 10 10 10 10 10 
10 10 10 10 10 10 10 10 10 
10 10 10 10 10 10 10 10 10 
10 10 10 10 10 10 10 10 10 
10 10 10 10 10 10 10 10 10 
10 10 10 10 10 10 10 10 10 
10 10 10 10 10 10 10 10 10 
10 10 10 10 10 10 10 10 10 
10 10 10 10 10 10 10 10 10 
10 10 10 10 10 10 10 10 10 
10 10 10 10 10 10 10 10 10 
10 10 10 10 10 10 10 10 10 
10 10 10 10 10 10 10 10 10 
10 10 10 10 10 10 10 10 10 
10 10 10 10 10 10 10 10 10 
10 10 10 10 10 10 10 10 10 
10 10 10 10 10 10 10 10 10 
10 10 10 10 10 10 10 10 10 
10 10 10 10 10 10 10 10 10 
10 10 10 10 10 10 10 10 10 
10 10 10 10 10 10 10 10 10 
10 10 10 10 10 10 10 10 10 
10 10 10 10 10 10 10 10 10 
10 10 10 10 10 10 10 10 10 
10 10 10 10 10 10 10 10 10 
10 10 10 10 10 10 10 10 10 
10 10 10 10 10 10 10 10 10 
10 10 10 10 10 10 10 10 10 
10 10 10 10 10 10 10 10 10 
10 10 10 10 10 10 10 10 10 
10 10 10 10 10 10 10 10 10 
10 10 10 10 10 10 10 10 10 
10 10 10 10 10 10 10 10 10 
10 10 10 10 10 10 10 10 10 
10 10 10 10 10 10 10 10 10 
10 10 10 10 10 10 10 10 10 
10 10 10 10 10 10 10 10 10 
10 10 10 10 10 10 10 10 10 
10 10 10 10 10 10 10 10 10 
10 10 10 10 10 10 10 10 10 
10 10 10 10 10 10 10 10 10 
10 10 10 10 10 10 10 10 10 
10 10 10 10 10 10 10 10 10 
10 10 10 10 10 10 10 10 10 
10 10 10 10 10 10 10 10 10 
10 10 10 10 10 10 10 10 10 
10 10 10 10 10 10 10 10 10 
10 10 10 10 10 10 10 10 10 
10 10 10 10 10 10 10 10 10 
10 10 10 10 10 10 10 10 10 
10 10 10 10 10 10 10 10 10 
10 10 10 10 10 10 10 10 10 
10 10 10 10 10 10 10 10 10 
10 10 10 10 10 10 10 10 10 
10 10 10 10 10 10 10 10 10 
10 10 10 10 10 10 10 10 10 

NORMALS Normals float
0.950507 0.310702 7.37978e-05 nan nan nan nan nan nan 
nan nan nan 0.93334 0.358994 7.60241e-05 nan nan nan 
0.886194 -0.463314 1.71842e-05 nan nan nan 0.721726 -0.692178 4.09632e-05 
0.923297 0.384087 7.70238e-05 0.919748 0.392508 0.000142365 nan nan nan 
0.928649 0.37096 7.79397e-05 0.938883 0.344237 0.000104146 0.981864 0.189586 7.31395e-05 
0.984655 0.174511 7.83091e-05 0.994731 -0.102515 6.22963e-05 0.99286 -0.119283 6.60221e-05 
0.943647 -0.330955 4.46923e-05 0.904223 -0.427061 6.23263e-05 0.751672 -0.659537 6.03693e-05 
0.728716 -0.684816 7.58581e-05 0.77256 -0.634942 6.87369e-05 0.894125 -0.447817 2.47467e-05 
nan nan nan 0.594851 -0.803836 0.000113625 nan nan nan 
0.549477 -0.835509 0.000156209 0.552037 -0.833819 0.000133915 nan nan nan 
0.936158 0.35158 0.000248646 nan nan nan 0.936759 0.349976 0.000231979 
nan nan nan 0.999793 -0.0203684 0.000143736 0.937986 -0.346673 0.000119601 
0.830344 -0.557252 8.95938e-05 0.797399 -0.603452 0.000113609 0.906361 -0.422503 0.000117026 
0.649785 -0.760118 0.000124839 0.550865 -0.834594 0.000137958 nan nan nan 
0.556102 -0.831114 0.000142116 nan nan nan nan nan nan 
nan nan nan nan nan nan 0.200069 0.979782 5.43502e-05 
0.200872 0.979618 7.18739e-05 nan nan nan nan nan nan 
nan nan nan nan nan nan nan nan nan 
0.925599 -0.378506 0.000125641 nan nan nan nan nan nan 
nan nan nan 0.720806 -0.693137 0.000153051 0.587383 -0.809309 0.000151909 
nan nan nan 0.576118 -0.817367 0.000152871 nan nan nan 
nan nan nan nan nan nan nan nan nan 
nan nan nan 0.115873 0.993264 7.26751e-05 nan nan nan 
nan nan nan 0.125808 0.992055 6.50896e-05 0.153302 0.988179 5.57265e-05 
nan nan nan 0.771659 -0.636037 0.000195397 0.65024 -0.759729 0.00017037 
0.579444 -0.815012 0.000154289 nan nan nan 0.605178 -0.79609 0.000166126 
nan nan nan nan nan nan nan nan nan 
nan nan nan nan nan nan nan nan nan 
nan nan nan nan nan nan nan nan nan 
nan nan nan nan nan nan 0.13153 0.991312 4.99023e-05 
0.150197 0.988656 5.28317e-05 0.249139 0.968468 6.43167e-05 nan nan nan 
0.689283 -0.724492 0.000197836 0.619465 -0.785025 0.00017225 nan nan nan 
0.630603 -0.776105 0.000180321 nan nan nan nan nan nan 
nan nan nan nan nan nan nan nan nan 
nan nan nan nan nan nan nan nan nan 
nan nan nan nan nan nan nan nan nan 
nan nan nan nan nan nan nan nan nan 
nan nan nan nan nan nan 0.457412 0.889255 8.27247e-05 
nan nan nan nan nan nan nan nan nan 
nan nan nan nan nan nan nan nan nan 
nan nan nan nan nan nan nan nan nan 
nan nan nan 0.491015 0.871151 8.69632e-05 nan nan nan 
nan nan nan nan nan nan nan nan nan 
nan nan nan nan nan nan nan nan nan 
nan nan nan nan nan nan nan nan nan 
nan nan nan nan nan nan nan nan nan 
nan nan nan nan nan nan nan nan nan 
nan nan nan nan nan nan nan nan nan 
nan nan nan nan nan nan nan nan nan 
nan nan nan nan nan nan -0.0497991 -0.998759 0.000340616 
-0.0274961 -0.999622 0.000325295 nan nan nan nan nan nan 
nan nan nan -0.0515252 -0.998672 0.000319923 nan nan nan 
-0.0650668 -0.997881 0.000334671 nan nan nan nan nan nan 
nan nan nan nan nan nan nan nan nan 
nan nan nan nan nan nan nan nan nan 
-0.0276941 -0.999616 0.000317057 nan nan nan -0.0393277 -0.999226 0.000329759 
nan nan nan nan nan nan nan nan nan 
nan nan nan 0.0906695 -0.995881 0.000327462 0.0389624 -0.999241 0.000324058 
nan nan nan 0.0233818 -0.999727 0.000332598 nan nan nan 
nan nan nan nan nan nan nan nan nan 
nan nan nan nan nan nan 0.155506 -0.987835 0.000338206 
0.10933 -0.994006 0.000336137 nan nan nan 0.0949435 -0.995483 0.000341106 
nan nan nan nan nan nan nan nan nan 
nan nan nan nan nan nan 0.156417 -0.987691 0.00034849 
nan nan nan 0.148374 -0.988931 0.000350475 nan nan nan 
nan nan nan nan nan nan nan nan nan 
nan nan nan nan nan nan nan nan nan 
nan nan nan nan nan nan nan nan nan 
nan nan nan nan nan nan nan nan nan 
0.185142 -0.982712 0.000360623 nan nan nan 0.183384 -0.983041 0.000360895 
nan nan nan nan nan nan nan nan nan 
nan nan nan nan nan nan nan nan nan 
nan nan nan nan nan nan nan nan nan 
nan nan nan nan nan nan nan nan nan 
nan nan nan nan nan nan nan nan nan 
nan nan nan nan nan nan nan nan nan 
nan nan nan nan nan nan nan nan nan 
nan nan nan nan nan nan nan nan nan 
nan nan nan nan nan nan nan nan nan 
nan nan nan nan nan nan nan nan nan 
nan nan nan nan nan nan nan nan nan 
nan nan nan nan nan nan nan nan nan 
nan nan nan 0.693516 -0.720441 0.000369877 0.647057 -0.762442 0.000402829 
nan nan nan 0.626037 -0.779793 0.000421126 nan nan nan 
nan nan nan nan nan nan nan nan nan 
nan nan nan nan nan nan nan nan nan 
0.751117 -0.660169 0.000399065 0.676101 -0.736808 0.000422702 nan nan nan 
0.714228 -0.699913 0.000422848 0.641399 -0.767207 0.000534276 nan nan nan 
nan nan nan nan nan nan 0.828039 -0.560671 0.000408678 
nan nan nan 0.673255 -0.73941 0.000687215 nan nan nan 
0.830196 -0.557472 0.000426259 0.863434 -0.504461 0.000448767 0.864906 -0.501933 0.000448347 
nan nan nan 0.80678 -0.590852 0.000694043 0.738676 -0.67406 0.000931121 
0.61341 -0.789764 0.0013109 nan nan nan 0.863995 -0.503501 0.000450138 
nan nan nan nan nan nan 0.8394 -0.543514 0.000473558 
0.837532 -0.546388 0.00056609 nan nan nan 0.871092 -0.491119 0.00068133 
0.884986 -0.465617 0.000924611 0.850377 -0.526172 0.00135106 nan nan nan 
nan nan nan nan nan nan nan nan nan 
0.823998 -0.566593 0.000696111 0.903227 -0.429161 0.00091189 0.967528 -0.252761 0.00128609 
0.978151 -0.207885 0.00202196 0.915093 -0.403226 0.00365799 nan nan nan 
nan nan nan nan nan nan nan nan nan 
nan nan nan -0.402244 0.915511 0.00624588 nan nan nan 
nan nan nan nan nan nan nan nan nan 
nan nan nan 0.830003 -0.557758 0.000725108 0.840826 -0.541305 0.000876797 
0.941569 -0.336818 0.00123949 0.999703 0.0243085 0.0016773 0.963505 0.267681 0.00237891 
nan nan nan nan nan nan nan nan nan 
nan nan nan nan nan nan -0.619593 0.784913 0.00394502 
-0.792985 0.609226 0.00419564 -0.672681 0.739921 0.00410181 -0.174008 0.984734 0.00441696 
nan nan nan 0.865149 0.501502 0.00372233 nan nan nan 
0.986326 -0.164796 0.0016929 nan nan nan nan nan nan 
nan nan nan nan nan nan nan nan nan 
0.874203 -0.48556 0.000749146 0.870571 -0.492043 0.000806971 0.906587 -0.422018 0.00102511 
0.990761 -0.135613 0.00141737 0.956123 0.292961 0.00172268 0.827922 0.56084 0.00205798 
nan nan nan nan nan nan nan nan nan 
nan nan nan nan nan nan -0.840561 0.541704 0.00367278 
-0.885556 0.464508 0.00473464 -0.837653 0.54586 0.019321 0.811901 -0.583783 0.00374803 
0.792572 -0.609776 0.00147159 0.810762 -0.585376 0.000941151 0.844214 -0.536006 0.00076391 
0.888128 -0.459597 0.000731313 0.927856 -0.372938 0.000813387 0.974955 -0.222399 0.00100452 
0.996152 0.0876304 0.00125075 0.890141 0.455683 0.00140909 0.734083 0.679058 0.00157068 
0.639117 0.769107 0.00210216 nan nan nan nan nan nan 
nan nan nan nan nan nan nan nan nan 
-0.999466 0.0319907 0.00668674 0.017875 -0.999823 0.00590373 0.500955 -0.865471 0.00199067 
0.605763 -0.795644 0.00109444 0.693439 -0.720515 0.000794234 0.792777 -0.609512 0.000685696 
0.900897 -0.434032 0.000667274 0.970377 -0.241594 0.000721421 0.999297 -0.0374713 0.000844407 
0.965594 0.260051 0.000993429 0.829106 0.55909 0.00108696 0.690389 0.723437 0.00118513 
0.62388 0.781519 0.00149871 nan nan nan nan nan nan 
nan nan nan nan nan nan -0.587085 -0.809486 0.00797546 
0.219804 -0.97554 0.00267776 0.410217 -0.911987 0.00130704 0.495338 -0.8687 0.000846872 
0.586172 -0.810186 0.000670396 0.716849 -0.697228 0.000605327 0.882064 -0.471129 0.000604694 
0.987206 -0.159446 0.000634353 0.991114 0.133013 0.000720523 0.909222 0.41631 0.000806738 
0.773732 0.633513 0.000863472 0.665421 0.746468 0.000938156 0.632691 0.774404 0.00114312 
nan nan nan nan nan nan nan nan nan 
nan nan nan 0.382649 -0.923893 0.000987476 0.427441 -0.904043 0.000702584 
0.493895 -0.869521 0.000579428 0.612233 -0.790678 0.000543952 0.811359 -0.584548 0.000594726 
0.990828 -0.135128 0.000677704 0.954821 0.297181 0.000697973 0.834968 0.550298 0.000709849 
0.714071 0.700073 0.000727689 0.636498 0.771278 0.000788109 0.628079 0.778149 0.000936978 
0.679735 0.733456 0.00126116 nan nan nan nan nan nan 
0.387626 -0.921816 0.000612945 0.42891 -0.903347 0.000519709 0.512886 -0.858457 0.000515331 
0.708895 -0.705314 0.000644232 0.984135 -0.177421 0.000852176 0.916621 0.399757 0.000761136 
0.766556 0.642178 0.000674961 0.663937 0.747788 0.000653146 0.611989 0.790866 0.000692728 
0.621207 0.783646 0.000806723 0.694548 0.719445 0.0010413 nan nan nan 
nan nan nan nan nan nan nan nan nan 
0.38496 -0.922933 0.000550969 0.413373 -0.910562 0.000479756 0.477387 -0.878693 0.00049861 
0.641528 -0.767099 0.000668748 0.964979 -0.262324 0.000971362 0.905223 0.424936 0.00084113 
0.731452 0.681893 0.000665551 0.633194 0.773993 0.000609909 0.600024 0.799981 0.000630355 
nan nan nan nan nan nan nan nan nan 
nan nan nan nan nan nan nan nan nan 
nan nan nan 0.453761 -0.891123 0.00043483 0.5083 -0.86118 0.000474386 
0.65754 -0.75342 0.000650623 0.957229 -0.289329 0.000942269 0.911666 0.41093 0.000865314 
0.714721 0.699409 0.00066188 0.615322 0.788276 0.000582021 0.598133 0.801396 0.000590406 
nan nan nan nan nan nan nan nan nan 
nan nan nan nan nan nan nan nan nan 
nan nan nan nan nan nan nan nan nan 
nan nan nan nan nan nan 0.607008 0.794695 0.000567228 
0.595146 0.803617 0.000564735 0.625705 0.78006 0.000623158 nan nan nan 
nan nan nan nan nan nan nan nan nan 
nan nan nan nan nan nan nan nan nan 
nan nan nan nan nan nan nan nan nan 
0.898535 -0.438902 0.000249547 nan nan nan nan nan nan 
nan nan nan nan nan nan nan nan nan 
0.899193 -0.437552 0.000258943 nan nan nan 0.899048 -0.43785 0.000256565 
nan nan nan nan nan nan nan nan nan 
nan nan nan nan nan nan nan nan nan 
nan nan nan nan nan nan nan nan nan 
nan nan nan nan nan nan nan nan nan 
nan nan nan nan nan nan 0.48903 -0.872267 0.000304651 
nan nan nan 0.42987 -0.902891 0.000292124 nan nan nan 
nan nan nan nan nan nan 0.407219 -0.913331 0.000276121 
nan nan nan nan nan nan nan nan nan 
nan nan nan -0.359966 -0.932966 9.65986e-05 nan nan nan 
nan nan nan nan nan nan nan nan nan 
nan nan nan nan nan nan -0.345155 -0.938546 7.2102e-05 
nan nan nan -0.35506 -0.934843 6.4525e-05 nan nan nan 
nan nan nan nan nan nan nan nan nan 