# vtk DataFile Version 4.2
vtk output
ASCII
DATASET POLYDATA
POINTS 555 double
0.5253055546 0.30487532031 -19.536107162 0.5253055546 0.30454305925 -18.492890055 0.52561111185 0.30487532031 -19.822123314 
0.52561111185 0.30454048927 -18.745077545 0.5253055546 0.30421789627 -17.426460373 0.52561111185 0.30420536908 -17.609429763 
0.5253055546 0.30391490245 -16.396454575 0.52561111185 0.3038698624 -16.408081065 0.5253055546 0.30365205739 -15.525989921 
0.52561111185 0.30353409005 -15.17056992 0.52550778155 0.30339825207 -14.835871595 0.5253055546 0.30341564446 -14.86463038 
0.5253055546 0.30314918587 -14.328659665 0.52558580884 0.30314415732 -14.323617817 0.5253055546 0.30284432533 -13.967026157 
0.52560719696 0.30284406354 -13.92509913 0.5253055546 0.30251856235 -13.845408134 0.52561055246 0.30251859441 -13.759290796 
0.5253055546 0.30218838784 -13.958597906 0.5256115835 0.30218585173 -13.846046799 0.5253055546 0.30186914501 -14.2464881 
0.52561781424 0.30185620409 -14.13281232 0.5253055546 0.30157911755 -14.637901116 0.5256613374 0.30152159158 -14.56040821 
0.5253055546 0.30132431371 -15.107879824 0.52554520975 0.30104223313 -15.60300431 0.5256444891 0.30125378109 -15.020669302 
0.5253055546 0.30107362337 -15.717773137 0.5253055546 0.30078991028 -16.523321904 0.52553221201 0.30074279669 -16.469187916 
0.5253055546 0.30048045916 -17.460256035 0.52558819472 0.30047817573 -17.222302982 0.5253055546 0.30017558021 -18.415026011 
0.52560849153 0.30016302507 -18.183321762 0.5253055546 0.29990832491 -19.272654073 0.5256275425 0.29986966037 -19.126254619 
0.5253055546 0.2996854465 -20 0.52552217105 0.29938436584 -21.494557996 0.52569631499 0.29960659395 -20.100335254 
0.5253055546 0.29939790869 -21.706160643 0.5253055546 0.2990871661 -23.46987746 0.5255838131 0.29907479668 -23.185155969 
0.5253055546 0.29875633856 -25.195085161 0.52559770047 0.29874950284 -24.921417115 0.5253055546 0.29841555409 -26.789801611 
0.52560758904 0.29841513567 -26.521442665 0.5253055546 0.29807137611 -28.273479544 0.52561111185 0.29807137611 -28.044625101 
0.52581144089 0.30336746559 -14.863004718 0.52591666645 0.30353409005 -15.417880767 0.52590136831 0.30313205609 -14.380241843 
0.52591395008 0.3028404206 -13.95117448 0.52591510343 0.30251731846 -13.735275053 0.52591764436 0.30218384595 -13.779536026 
0.52593094741 0.30185608163 -14.035514693 0.52598211564 0.30159118305 -14.33693935 0.52579801782 0.30110749454 -15.256369641 
0.5259315288 0.30130757817 -14.793137693 0.52581033476 0.30082577863 -16.016168091 0.52602642511 0.30106280515 -15.251757555 
0.52588984698 0.30048062832 -16.965922215 0.52592068838 0.30015015371 -17.95656345 0.52597826426 0.299813308 -19.020015109 
0.52585030283 0.29933220284 -21.334310378 0.52596541869 0.29954462016 -20.052395074 0.52583340262 0.29902623337 -23.136413763 
0.52589192195 0.29875332962 -24.558798426 0.52591140123 0.29841591137 -26.214348728 0.52591583188 0.29807089776 -27.656431138 
0.52561111185 0.29772461084 -29.107756667 0.52591666645 0.29772461084 -28.914296865 0.52622222106 0.30335725269 -15 
0.52622222106 0.30353409005 -15.676839611 0.52621990352 0.30312023708 -14.495141002 0.52621390108 0.30284038581 -14.040112037 
0.52621301135 0.30251102738 -13.749695426 0.52622209032 0.30218287372 -13.747682574 0.52623192367 0.30185806589 -13.964248255 
0.52623480676 0.30154537549 -14.334419433 0.52625165803 0.30126468293 -14.758620732 0.52612961247 0.30078684686 -15.909913398 
0.52631939877 0.30103057963 -15.192835654 0.52619734143 0.3004722615 -16.760305172 0.52623255623 0.30014882261 -17.712590957 
0.5262886085 0.29988333502 -18.514574982 0.52610849161 0.29939666863 -20.60362233 0.52624051687 0.29959798146 -19.562895817 
0.52611652871 0.29911079909 -22.262668542 0.52633354733 0.29935031748 -20.608349446 0.52619434226 0.29875850941 -24.186878943 
0.52621645032 0.29841567135 -25.926828057 0.52622128706 0.29807069303 -27.416288256 0.52622214343 0.29772424312 -28.620813575 
0.52591666645 0.2973771787 -29.803125239 0.52622222222 0.2973771787 -29.638153748 0.52652777831 0.30325807387 -15 
0.52652777831 0.30319729289 -14.798391485 0.5264627027 0.30279333245 -14.08869241 0.5265113615 0.30250822328 -13.838303598 
0.52652508231 0.30217987755 -13.763492539 0.52652912147 0.30184993402 -13.941064957 0.52653439433 0.30153087012 -14.294829097 
0.52655592495 0.30124679153 -14.70746022 0.52643436748 0.30076990357 -15.786520786 0.52662259489 0.30100893118 -15.13152861 
0.52650293692 0.30046782384 -16.586048546 0.52653254009 0.30015014228 -17.505483339 0.52654013539 0.29983688928 -18.49034201 
0.52655776878 0.29955342004 -19.473250742 0.52643529882 0.29907062963 -22.11090063 0.52662524079 0.29931543733 -20.486169493 
0.52650051232 0.29875113101 -23.926687976 0.52652197873 0.29841433456 -25.712179973 0.52652689503 0.29807041392 -27.240796653 
0.52652823842 0.29772411584 -28.464039971 0.52652777831 0.2973771787 -29.474502718 0.52670292397 0.30319729289 -15.186430439 
0.52679380566 0.30308598563 -15.013277492 0.526911682 0.30319729289 -15.737028775 0.52676957185 0.30283771361 -14.439568806 
0.52681577152 0.30249199694 -13.99036471 0.52682325665 0.30216995106 -13.831544303 0.52683198635 0.30184600087 -13.96102271 
0.52683879329 0.30152521823 -14.277006315 0.52686085615 0.30123576745 -14.67255054 0.52673939173 0.30075910007 -15.685533595 
0.52692773933 0.30099312252 -15.085430974 0.5268071683 0.30046427343 -16.450970098 0.52683026336 0.30014229074 -17.363995428 
0.5268394187 0.29982183488 -18.343836053 0.52686156017 0.29953357164 -19.319870774 0.52673964722 0.29905190951 -21.898110983 
0.52692828204 0.29928977247 -20.336302879 0.52680589484 0.29874580245 -23.721684811 0.52682748666 0.29841305043 -25.576693606 
0.52683297371 0.29807005677 -27.146328762 0.52683996112 0.29772431429 -28.357575862 0.52688375243 0.29737916714 -29.292320813 
0.52652777831 0.29714487607 -30 0.52678547275 0.296905395 -30.84880118 0.52686990055 0.29710908044 -30.015216391 
0.52652777831 0.29692680112 -30.985496388 0.52652777831 0.2966804043 -32.0904621 0.52683333407 0.2966804043 -31.790688878 
0.52701907323 0.30298831422 -15.203650377 0.52716512098 0.30319729289 -16.523857635 0.5271224155 0.30272241612 -14.626904767 
0.52707312713 0.30243237115 -14.103423313 0.52712380219 0.30216750574 -13.989286968 0.52713608185 0.30184389072 -14.044923804 
0.52714328436 0.30152092709 -14.302458769 0.52716597528 0.30122737819 -14.665253416 0.5270446783 0.30075103913 -15.60404894 
0.52723309125 0.30098084225 -15.054087857 0.52711173181 0.30046095504 -16.333624719 0.52713430819 0.30013893459 -17.213285128 
0.52714408201 0.29981552434 -18.172150011 0.52716702175 0.29951937394 -19.158702065 0.52704500231 0.29903785958 -21.708735239 
0.52723426937 0.29926668617 -20.197604364 0.52711130756 0.29874018856 -23.584565686 0.52713216373 0.29841054197 -25.520228322 
0.52713897447 0.29807000975 -27.10735478 0.52715301949 0.29773388873 -28.257768304 0.52720445146 0.29746346045 -28.971258658 
0.52703665986 0.29696700993 -30.400395871 0.52715604824 0.29717236919 -29.707438867 0.52713889016 0.2966804043 -31.487921716 
0.52726388513 0.29692290603 -30.421327788 0.52724399139 0.30291247016 -15.395842336 0.52744444476 0.30295488689 -16.150060227 
0.52744444476 0.30319729289 -17.47118777 0.52744444476 0.30273878136 -15 0.52739642988 0.30248647745 -14.498735345 
0.52742952293 0.30216876618 -14.232156023 0.52743439746 0.30183408622 -14.184286985 0.52744607927 0.30151496573 -14.377997904 
0.52747010268 0.30121948503 -14.689416494 0.52735010727 0.30074458396 -15.529123543 0.52753802498 0.30097043539 -15.038474996 
0.52741717603 0.30045887719 -16.212779487 0.52743987549 0.30013742961 -17.052813333 0.52745044419 0.29981046328 -17.994916101 
0.52747692108 0.29950226436 -19.007783431 0.52735315242 0.29902054552 -21.561574593 0.52754092017 0.29923536839 -20.092118893 
0.52741304482 0.29872615752 -23.522772471 0.52743009304 0.29840358202 -25.499002256 0.52744299068 0.29807098467 -27.036464288 
0.52745397959 0.29773878706 -28.14464433 0.52745730422 0.2974186696 -28.97137939 0.52747564236 0.29713125489 -29.664904162 
0.52736849315 0.29664158302 -31.468889507 0.52754482109 0.29689175479 -30.358673996 0.52713889016 0.29633073534 -32.957509851 
0.52742231289 0.29631979237 -32.812478309 0.52713889016 0.29598098888 -34.412358472 0.5274444451 0.29598098888 -34.305146134 
0.52774999936 0.30255931815 -15 0.52774999936 0.30252186728 -14.890889007 0.52768457178 0.30210500478 -14.42120708 
0.52772687956 0.30181473984 -14.385647863 0.52774122621 0.30150205396 -14.5033375 0.52777073967 0.30121093286 -14.752483059 
0.52765591532 0.30074076771 -15.463227691 0.52784052803 0.3009653325 -15.049015868 0.52772387327 0.30045944582 -16.094878715 
0.52774681211 0.300137063 -16.892649862 0.52776097912 0.29980298438 -17.821577292 0.52781339753 0.29946056544 -18.908980807 
0.5276798166 0.29897862484 -21.508660691 0.5277945735 0.29918799266 -20.049496259 0.52766475082 0.29867904788 -23.662423784 
0.52772455662 0.29840748299 -25.260520314 0.527745812 0.29807166375 -26.819286059 0.52775178327 0.29773205784 -27.966576221 
0.5277569472 0.29740458561 -28.840489344 0.5277785691 0.2971139721 -29.570733674 0.52765856404 0.29662589375 -31.36062351 
0.52784525205 0.2968719034 -30.301075556 0.52772412589 0.29631591191 -32.720805516 0.5277500003 0.29598098888 -34.294626791 
0.52790941593 0.30252186728 -15.359452716 0.52799239955 0.3023700329 -15.190913542 0.52811923657 0.30252186728 -16.037072517 
0.52799672797 0.3020886808 -14.803586884 0.52797173306 0.30175395675 -14.590809151 0.52802500267 0.30148382879 -14.689278189 
0.52805530948 0.30119888016 -14.86080857 0.52796601794 0.30074983844 -15.432350217 0.52813106263 0.30098407522 -15.101484836 
0.52803662102 0.30046914691 -16.015717172 0.52805520017 0.3001384194 -16.757692807 0.5280714502 0.29980631489 -17.621230185 
0.52812226731 0.2995380479 -18.399259662 0.5279297347 0.29904636872 -20.707618247 0.52806983245 0.29924929406 -19.515998318 
[...]
CELL_DATA 929
FIELD FieldData 1
vtkGhostType 1 929 unsigned_char
0 0 0 0 0 0 0 0 0 
0 0 0 0 0 0 0 0 0 
0 0 0 0 0 0 0 0 0 
0 0 0 0 0 0 0 0 0 
0 0 0 0 0 0 0 0 0 
0 0 0 0 0 0 0 0 0 
0 0 0 0 0 0 0 0 0 
0 0 0 0 0 0 0 0 0 
0 0 0 0 0 0 0 0 0 
0 0 0 0 0 0 0 0 0 
0 0 0 0 0 0 0 0 0 
0 0 0 0 0 0 0 0 0 
0 0 0 0 0 0 0 0 0 
0 0 0 0 0 0 0 0 0 
0 0 0 0 0 0 0 0 0 
0 0 0 0 0 0 0 0 0 
0 0 0 0 0 0 0 0 0 
0 0 0 0 0 0 0 0 0 
0 0 0 0 0 0 0 0 0 
0 0 0 0 0 0 0 0 0 
0 0 0 0 0 0 0 0 0 
0 0 0 0 0 0 0 0 0 
0 0 0 0 0 0 0 0 0 
0 0 0 0 0 0 0 0 0 
0 0 0 0 0 0 0 0 0 
0 0 0 0 0 0 0 0 0 
0 0 0 0 0 0 0 0 0 
0 0 0 0 0 0 0 0 0 
0 0 0 0 0 0 0 0 0 
0 0 0 0 0 0 0 0 0 
0 0 0 0 0 0 0 0 0 
0 0 0 0 0 0 0 0 0 
0 0 0 0 0 0 0 0 0 
0 0 0 0 0 0 0 0 0 
0 0 0 0 0 0 0 0 0 
0 0 0 0 0 0 0 0 0 
0 0 0 0 0 0 0 0 0 
0 0 0 0 0 0 0 0 0 
0 0 0 0 0 0 0 0 0 
0 0 0 0 0 0 0 0 0 
0 0 0 0 0 0 0 0 0 
0 0 0 0 0 0 0 0 0 
0 0 0 0 0 0 0 0 0 
0 0 0 0 0 0 0 0 0 
0 0 0 0 0 0 0 0 0 
0 0 0 0 0 0 0 0 0 
0 0 0 0 0 0 0 0 0 
0 0 0 0 0 0 0 0 0 
0 0 0 0 0 0 0 0 0 
0 0 0 0 0 0 0 0 0 
0 0 0 0 0 0 0 0 0 
0 0 0 0 0 0 0 0 0 
0 0 0 0 0 0 0 0 0 
0 0 0 0 0 0 0 0 0 
0 0 0 0 0 0 0 0 0 
0 0 0 0 0 0 0 0 0 
0 0 0 0 0 0 0 0 0 
0 0 0 0 0 0 0 0 0 
0 0 0 0 0 0 0 0 0 
0 0 0 0 0 0 0 0 0 
0 0 0 0 0 0 0 0 0 
0 0 0 0 0 0 0 0 0 
0 0 0 0 0 0 0 0 0 
0 0 0 0 0 0 0 0 0 
0 0 0 0 0 0 0 0 0 
0 0 0 0 0 0 0 0 0 
0 0 0 0 0 0 0 0 0 
0 0 0 0 0 0 0 0 0 
0 0 0 0 0 0 0 0 0 
0 0 0 0 0 0 0 0 0 
0 0 0 0 0 0 0 0 0 
0 0 0 0 0 0 0 0 0 
0 0 0 0 0 0 0 0 0 
0 0 0 0 0 0 0 0 0 
0 0 0 0 0 0 0 0 0 
0 0 0 0 0 0 0 0 0 
0 0 0 0 0 0 0 0 0 
0 0 0 0 0 0 0 0 0 
0 0 0 0 0 0 0 0 0 
0 0 0 0 0 0 0 0 0 
0 0 0 0 0 0 0 0 0 
0 0 0 0 0 0 0 0 0 
0 0 0 0 0 0 0 0 0 
0 0 0 0 0 0 0 0 0 
0 0 0 0 0 0 0 0 0 
0 0 0 0 0 0 0 0 0 
0 0 0 0 0 0 0 0 0 
0 0 0 0 0 0 0 0 0 
0 0 0 0 0 0 0 0 0 
0 0 0 0 0 0 0 0 0 
0 0 0 0 0 0 0 0 0 
0 0 0 0 0 0 0 0 0 
0 0 0 0 0 0 0 0 0 
0 0 0 0 0 0 0 0 0 
0 0 0 0 0 0 0 0 0 
0 0 0 0 0 0 0 0 0 
0 0 0 0 0 0 0 0 0 
0 0 0 0 0 0 0 0 0 
0 0 0 0 0 0 0 0 0 
0 0 0 0 0 0 0 0 0 
0 0 0 0 0 0 0 0 0 
0 0 0 0 0 0 0 0 0 
0 0 0 0 0 0 0 0 0 
0 0 
POINT_DATA 555
SCALARS scalars float
LOOKUP_TABLE default
33.5 33.5 33.5 33.5 33.5 33.5 33.5 33.5 33.5 
33.5 33.5 33.5 33.5 33.5 33.5 33.5 33.5 33.5 
33.5 33.5 33.5 33.5 33.5 33.5 33.5 33.5 33.5 
33.5 33.5 33.5 33.5 33.5 33.5 33.5 33.5 33.5 
33.5 33.5 33.5 33.5 33.5 33.5 33.5 33.5 33.5 
33.5 33.5 33.5 33.5 33.5 33.5 33.5 33.5 33.5 
33.5 33.5 33.5 33.5 33.5 33.5 33.5 33.5 33.5 
33.5 33.5 33.5 33.5 33.5 33.5 33.5 33.5 33.5 
33.5 33.5 33.5 33.5 33.5 33.5 33.5 33.5 33.5 
33.5 33.5 33.5 33.5 33.5 33.5 33.5 33.5 33.5 
33.5 33.5 33.5 33.5 33.5 33.5 33.5 33.5 33.5 
33.5 33.5 33.5 33.5 33.5 33.5 33.5 33.5 33.5 
33.5 33.5 33.5 33.5 33.5 33.5 33.5 33.5 33.5 
33.5 33.5 33.5 33.5 33.5 33.5 33.5 33.5 33.5 
33.5 33.5 33.5 33.5 33.5 33.5 33.5 33.5 33.5 
33.5 33.5 33.5 33.5 33.5 33.5 33.5 33.5 33.5 
33.5 33.5 33.5 33.5 33.5 33.5 33.5 33.5 33.5 
33.5 33.5 33.5 33.5 33.5 33.5 33.5 33.5 33.5 
33.5 33.5 33.5 33.5 33.5 33.5 33.5 33.5 33.5 
33.5 33.5 33.5 33.5 33.5 33.5 33.5 33.5 33.5 
33.5 33.5 33.5 33.5 33.5 33.5 33.5 33.5 33.5 
33.5 33.5 33.5 33.5 33.5 33.5 33.5 33.5 33.5 
33.5 33.5 33.5 33.5 33.5 33.5 33.5 33.5 33.5 
33.5 33.5 33.5 33.5 33.5 33.5 33.5 33.5 33.5 
33.5 33.5 33.5 33.5 33.5 33.5 33.5 33.5 33.5 
33.5 33.5 33.5 33.5 33.5 33.5 33.5 33.5 33.5 
33.5 33.5 33.5 33.5 33.5 33.5 33.5 33.5 33.5 
33.5 33.5 33.5 33.5 33.5 33.5 33.5 33.5 33.5 
33.5 33.5 33.5 33.5 33.5 33.5 33.5 33.5 33.5 
33.5 33.5 33.5 33.5 33.5 33.5 33.5 33.5 33.5 
33.5 33.5 33.5 33.5 33.5 33.5 33.5 33.5 33.5 
33.5 33.5 33.5 33.5 33.5 33.5 33.5 33.5 33.5 
33.5 33.5 33.5 33.5 33.5 33.5 33.5 33.5 33.5 
33.5 33.5 33.5 33.5 33.5 33.5 33.5 33.5 33.5 
33.5 33.5 33.5 33.5 33.5 33.5 33.5 33.5 33.5 
33.5 33.5 33.5 33.5 33.5 33.5 33.5 33.5 33.5 
33.5 33.5 33.5 33.5 33.5 33.5 33.5 33.5 33.5 
33.5 33.5 33.5 33.5 33.5 33.5 33.5 33.5 33.5 
33.5 33.5 33.5 33.5 33.5 33.5 33.5 33.5 33.5 
33.5 33.5 33.5 33.5 33.5 33.5 33.5 33.5 33.5 
33.5 33.5 33.5 33.5 33.5 33.5 33.5 33.5 33.5 
33.5 33.5 33.5 33.5 33.5 33.5 33.5 33.5 33.5 
33.5 33.5 33.5 33.5 33.5 33.5 33.5 33.5 33.5 
33.5 33.5 33.5 33.5 33.5 33.5 33.5 33.5 33.5 
33.5 33.5 33.5 33.5 33.5 33.5 33.5 33.5 33.5 
33.5 33.5 33.5 33.5 33.5 33.5 33.5 33.5 33.5 
33.5 33.5 33.5 33.5 33.5 33.5 33.5 33.5 33.5 
33.5 33.5 33.5 33.5 33.5 33.5 33.5 33.5 33.5 
33.5 33.5 33.5 33.5 33.5 33.5 33.5 33.5 33.5 
33.5 33.5 33.5 33.5 33.5 33.5 33.5 33.5 33.5 
33.5 33.5 33.5 33.5 33.5 33.5 33.5 33.5 33.5 
33.5 33.5 33.5 33.5 33.5 33.5 33.5 33.5 33.5 
33.5 33.5 33.5 33.5 33.5 33.5 33.5 33.5 33.5 
33.5 33.5 33.5 33.5 33.5 33.5 33.5 33.5 33.5 
33.5 33.5 33.5 33.5 33.5 33.5 33.5 33.5 33.5 
33.5 33.5 33.5 33.5 33.5 33.5 33.5 33.5 33.5 
33.5 33.5 33.5 33.5 33.5 33.5 33.5 33.5 33.5 
33.5 33.5 33.5 33.5 33.5 33.5 33.5 33.5 33.5 
33.5 33.5 33.5 33.5 33.5 33.5 33.5 33.5 33.5 
33.5 33.5 33.5 33.5 33.5 33.5 33.5 33.5 33.5 
33.5 33.5 33.5 33.5 33.5 33.5 33.5 33.5 33.5 
33.5 33.5 33.5 33.5 33.5 33.5 
NORMALS Normals float
nan nan nan nan nan nan nan nan nan 
nan nan nan nan nan nan nan nan nan 
nan nan nan nan nan nan nan nan nan 
nan nan nan 0.148863 0.988858 0.000290059 nan nan nan 
nan nan nan 0.125459 0.992099 0.000420933 nan nan nan 
0.0178816 0.99984 0.000997226 nan nan nan -0.878755 -0.477254 0.00441103 
nan nan nan -0.345223 -0.93852 0.00103749 nan nan nan 
-0.261298 -0.965258 0.000659439 nan nan nan -0.227826 -0.973702 0.000527251 
nan nan nan -0.232763 -0.972533 0.000456675 -0.231134 -0.972922 0.000470909 
nan nan nan nan nan nan -0.262204 -0.965012 0.00038541 
nan nan nan -0.279421 -0.960169 0.000319779 nan nan nan 
-0.27913 -0.960253 0.000257045 nan nan nan -0.268849 -0.963182 0.000202846 
nan nan nan -0.252579 -0.967576 0.000173227 -0.264436 -0.964403 0.000178029 
nan nan nan nan nan nan -0.233542 -0.972347 0.000171329 
nan nan nan -0.221997 -0.975047 0.000180074 nan nan nan 
-0.215045 -0.976604 0.000201225 nan nan nan -0.213529 -0.976937 0.000233825 
0.195852 0.980633 0.000283204 nan nan nan 0.191876 0.981419 0.000369874 
0.148412 0.988925 0.0007826 -0.828714 0.559608 0.00843456 -0.330637 -0.943757 0.00114825 
-0.246197 -0.96922 0.000677708 -0.210344 -0.977627 0.000541593 -0.222356 -0.974966 0.000478662 
-0.218341 -0.975872 0.00048566 -0.253628 -0.967302 0.000415422 -0.220324 -0.975427 0.000483142 
-0.280935 -0.959727 0.00033979 -0.274244 -0.96166 0.000269757 -0.258952 -0.96589 0.000211602 
-0.252488 -0.9676 0.000172476 -0.257091 -0.966387 0.000174737 -0.232045 -0.972705 0.000169183 
-0.2143 -0.976768 0.000176357 -0.203111 -0.979156 0.000195809 -0.200125 -0.97977 0.000227959 
nan nan nan -0.213551 -0.976932 0.000267614 0.2689 0.963168 0.00027533 
nan nan nan 0.27984 0.960047 0.000321698 0.282176 0.959362 0.000600708 
0.234179 0.972189 0.00309404 -0.281263 -0.95963 0.00139096 -0.2291 -0.973403 0.000699983 
-0.196226 -0.980559 0.000552882 -0.196427 -0.980518 0.000508367 -0.215917 -0.976412 0.000452019 
-0.200372 -0.97972 0.000501124 -0.241748 -0.970339 0.000367607 -0.242517 -0.970147 0.000284587 
-0.239309 -0.970943 0.000221802 -0.24675 -0.969079 0.000172525 -0.244031 -0.969768 0.000174127 
-0.217896 -0.975972 0.000167242 -0.244009 -0.969773 0.000172289 -0.189304 -0.981919 0.000172758 
-0.166907 -0.985973 0.00019167 -0.164984 -0.986296 0.000224263 -0.188298 -0.982112 0.000265514 
nan nan nan nan nan nan nan nan nan 
0.388024 0.921649 0.000276032 0.404639 0.914476 0.000446165 0.471248 0.882 0.00131341 
-0.0458061 -0.998948 0.00205781 -0.16292 -0.986639 0.000749968 -0.166131 -0.986104 0.000560842 
-0.160928 -0.986966 0.000516364 -0.157474 -0.987523 0.000475914 -0.156809 -0.987629 0.000510618 
-0.16801 -0.985785 0.000396192 -0.192672 -0.981263 0.00030548 -0.216434 -0.976297 0.000234933 
-0.225577 -0.974225 0.000181697 -0.194335 -0.980935 0.000164365 -0.223095 -0.974797 0.00017066 
-0.144041 -0.989572 0.000168156 -0.103548 -0.994624 0.000187386 -0.101146 -0.994871 0.000223506 
-0.14386 -0.989598 0.000269745 -0.201081 -0.979575 0.000306529 nan nan nan 
nan nan nan nan nan nan 0.4887 0.872452 0.000328934 
0.563661 0.826006 0.00071593 0.837465 -0.546484 0.00273156 0.0107022 -0.999942 0.000857512 
-0.0920481 -0.995754 0.000586363 -0.115919 -0.993259 0.000520749 -0.115195 -0.993343 0.000483937 
-0.111864 -0.993724 0.000513975 -0.12582 -0.992053 0.000416488 -0.167342 -0.985899 0.000329065 
-0.203194 -0.979138 0.000250818 -0.203096 -0.979159 0.000189048 -0.162056 -0.986782 0.000159393 
-0.191156 -0.98156 0.000167064 -0.0855033 -0.996338 0.000160744 -0.0212815 -0.999774 0.000182207 
-0.0142788 -0.999898 0.000226364 -0.0871614 -0.996194 0.000282679 -0.169036 -0.98561 0.000319263 
nan nan nan -0.220447 -0.975399 0.000332281 -0.213892 -0.976857 0.000332324 
nan nan nan nan nan nan nan nan nan 
0.519266 0.854613 0.000235178 nan nan nan 0.517259 0.855829 0.000250918 
0.592695 0.805427 0.000465401 0.96692 0.255077 0.0013703 0.313778 -0.949496 0.00103668 
0.0226186 -0.999744 0.000640865 -0.0683059 -0.997664 0.000539784 -0.111258 -0.993791 0.000496505 
-0.0911554 -0.995837 0.000526262 -0.142734 -0.989761 0.000437084 -0.184092 -0.982909 0.000352571 
-0.206325 -0.978483 0.000264514 -0.187622 -0.982241 0.000193468 -0.131349 -0.991336 0.000152222 
-0.157991 -0.987441 0.000159949 -0.0422802 -0.999106 0.000150412 0.0503178 -0.998733 0.000175004 
0.0561915 -0.99842 0.000233666 -0.0411329 -0.999154 0.000306768 -0.152036 -0.988375 0.000341394 
-0.217622 -0.976033 0.000342467 -0.215668 -0.976467 0.000346277 -0.224337 -0.974512 0.000330382 
-0.216409 -0.976303 0.000346214 0.51241 0.858741 0.000233337 nan nan nan 
nan nan nan 0.51746 0.855707 0.000243517 0.584204 0.811607 0.00034306 
0.861873 0.507124 0.000777841 0.734768 -0.678318 0.00117297 0.193007 -0.981197 0.000742546 
-0.00957252 -0.999954 0.000593359 -0.120354 -0.992731 0.000529771 -0.0855261 -0.996336 0.000561746 
-0.188027 -0.982164 0.000461098 -0.218596 -0.975815 0.000374092 -0.220277 -0.975437 0.000276599 
-0.193022 -0.981194 0.000195214 -0.140366 -0.9901 0.000143735 -0.156574 -0.987666 0.000150059 
-0.0650977 -0.997879 0.000138822 0.0164415 -0.999865 0.000168388 -0.0125271 -0.999921 0.000248499 
-0.109631 -0.993972 0.000339767 -0.192704 -0.981257 0.000367905 -0.211738 -0.977326 0.000357596 
-0.19385 -0.981031 0.000335214 -0.20795 -0.978139 0.000355022 nan nan nan 
-0.163819 -0.98649 0.000319603 nan nan nan nan nan nan 
nan nan nan 0.591242 0.806494 0.00027762 0.803294 0.595583 0.000517656 
0.987732 -0.156154 0.000979478 0.490187 -0.871617 0.000887296 0.119973 -0.992777 0.000699113 
-0.0879729 -0.996123 0.000603148 -0.0424517 -0.999098 0.0006376 -0.209875 -0.977728 0.000501698 
-0.241635 -0.970367 0.000396959 -0.236136 -0.97172 0.000290683 -0.215085 -0.976595 0.000201288 
-0.187732 -0.98222 0.000138276 -0.191118 -0.981567 0.000141366 -0.169165 -0.985588 0.000130298 
-0.187202 -0.982321 0.000161573 -0.264524 -0.964379 0.000247836 -0.283569 -0.958952 0.000334909 
-0.236165 -0.971713 0.000363856 -0.170803 -0.985305 0.000353927 -0.103207 -0.99466 0.00033205 
-0.143131 -0.989704 0.000349131 nan nan nan nan nan nan 
nan nan nan nan nan nan nan nan nan 
0.784821 0.619723 0.000367263 0.976762 0.214325 0.000645806 0.866092 -0.499883 0.000892719 
0.429643 -0.902998 0.000851322 0.0681837 -0.997673 0.000736836 0.152626 -0.988284 0.000785251 
-0.148395 -0.988928 0.000575451 -0.225314 -0.974286 0.00043271 -0.238476 -0.971148 0.000311557 
-0.232835 -0.972516 0.000214286 -0.213284 -0.97699 0.000140121 -0.232292 -0.972646 0.000144536 
-0.272305 -0.962211 0.000130591 -0.235356 -0.971909 0.000140529 -0.359357 -0.9332 0.000151445 
-0.400005 -0.916513 0.000212046 -0.334138 -0.942524 0.000285134 -0.19156 -0.981481 0.000328294 
-0.0577522 -0.998331 0.000329562 0.0468758 -0.998901 0.000313297 -0.00642068 -0.999979 0.000326384 
0.121533 -0.992587 0.000299784 0.176558 -0.98429 0.000293968 0.7866 0.617463 0.000321484 
0.786053 0.61816 0.000264794 0.654438 0.756116 0.000174216 0.900556 0.43474 0.000384855 
0.924976 0.380026 0.00041521 0.999366 -0.0355915 0.000637526 0.850186 -0.526481 0.000845458 
0.448185 -0.89394 0.000893958 0.746433 -0.66546 0.000903242 0.0592316 -0.998244 0.0007058 
-0.129094 -0.991632 0.000497181 -0.192183 -0.981359 0.000344042 -0.206789 -0.978386 0.000235614 
-0.219559 -0.975599 0.00016242 -0.266756 -0.963764 0.000138682 -0.232424 -0.972615 0.000147042 
-0.332748 -0.943016 0.000150001 -0.317266 -0.948337 0.000189887 -0.204046 -0.978961 0.000244064 
-0.0219991 -0.999758 0.000281499 0.132778 -0.991146 0.000289894 0.236052 -0.97174 0.000279744 
0.175905 -0.984407 0.000290336 0.32389 -0.946095 0.000269121 nan nan nan 
nan nan nan 0.790112 0.612963 0.000197024 0.920165 0.391531 0.000395016 
0.897095 0.441838 0.000279739 0.994969 0.100176 0.000531136 0.976512 0.215462 0.000409775 
0.923456 -0.383703 0.000788732 0.99698 -0.0776627 0.000591651 0.880661 -0.473746 0.000806957 
0.500639 -0.865656 0.000812163 0.131789 -0.991278 0.000584648 -0.0327723 -0.999463 0.000386217 
-0.076886 -0.99704 0.000258121 -0.0910896 -0.995843 0.000179304 -0.114758 -0.993393 0.000147982 
-0.0990826 -0.995079 0.000154558 -0.130741 -0.991417 0.000154415 -0.0757576 -0.997126 0.000178742 
0.0587022 -0.998276 0.000211278 0.219957 -0.975509 0.000235526 0.349634 -0.936886 0.00024614 
0.431255 -0.90223 0.000237302 0.364121 -0.931352 0.000247438 0.503466 -0.864015 0.000226808 
0.575698 -0.817663 0.000219151 nan nan nan 0.801354 0.59819 0.000154832 
0.885084 0.465431 0.00019973 0.945129 0.326697 0.000270875 0.986163 0.165779 0.000376852 
0.998055 -0.0623451 0.000518848 0.89717 -0.441686 0.000646798 0.571851 -0.820357 0.000588811 
0.28802 -0.957624 0.000399131 0.185766 -0.982594 0.000260141 0.162506 -0.986708 0.000179288 
0.153135 -0.988205 0.000147426 0.16164 -0.98685 0.000154418 0.165688 -0.986178 0.000149119 
0.229221 -0.973374 0.000161884 0.333958 -0.942588 0.000180135 0.441439 -0.897291 0.000196468 
0.436677 -0.899618 0.000228792 0.526279 -0.850312 0.000204542 0.505476 -0.862841 0.000205618 
0.585111 -0.810953 0.000197352 0.633577 -0.77368 0.000189694 0.688571 -0.725169 0.00018214 
nan nan nan nan nan nan nan nan nan 
nan nan nan nan nan nan 0.839647 0.543133 0.000123719 
0.88871 0.45847 0.000147386 0.924672 0.380766 0.000187667 0.959409 0.282018 0.000247787 
0.990824 0.135155 0.000321955 0.994243 -0.107144 0.000396976 0.881861 -0.47151 0.000417639 
0.641842 -0.766837 0.000325415 0.491408 -0.87093 0.000217741 0.449609 -0.893225 0.000150157 
0.436148 -0.899875 0.000132453 0.448422 -0.893822 0.00014084 0.44275 -0.896645 0.000132584 
0.478567 -0.878051 0.000141 0.53918 -0.842191 0.000154484 0.600197 -0.799852 0.000168853 
0.648469 -0.761241 0.000171085 0.608306 -0.793703 0.000171318 0.686478 -0.727151 0.000166803 
0.721334 -0.692588 0.000160036 0.762757 -0.646685 0.000151251 0.810499 -0.58574 0.000141073 
nan nan nan nan nan nan nan nan nan 
nan nan nan nan nan nan nan nan nan 
nan nan nan 0.897797 0.44041 0.00010722 0.911891 0.410433 0.000133223 
0.94279 0.333388 0.000168235 0.977976 0.208716 0.000206748 0.999564 0.0295393 0.00023795 
0.972347 -0.23354 0.000248368 0.845243 -0.534382 0.000212954 0.708582 -0.705628 0.000152337 
0.537254 -0.84342 0.000133459 0.654738 -0.755856 0.000116465 0.676552 -0.736395 0.000123392 
0.64162 -0.767023 0.000111645 0.64169 -0.766964 0.000114832 0.653427 -0.756989 0.000124095 
0.680948 -0.732331 0.000137296 0.627767 -0.778402 0.000165413 0.705335 -0.708874 0.000146574 
0.693316 -0.720634 0.000143595 0.72465 -0.689117 0.000148037 0.745434 -0.66658 0.000144168 
0.774889 -0.632097 0.000135494 0.811576 -0.584246 0.000124266 0.821013 -0.57091 0.000134243 
0.820887 -0.571091 0.000135834 0.813842 -0.581086 0.000123609 nan nan nan 
nan nan nan 0.831344 -0.555759 0.000150939 nan nan nan 
nan nan nan nan nan nan nan nan nan 
0.89754 0.440934 0.000106165 0.889464 0.457006 9.39981e-05 nan nan nan 
0.906799 0.421564 0.00010887 0.90658 0.422034 0.000102449 0.933875 0.3576 0.000111276 
0.938111 0.346336 0.000114343 0.975578 0.219652 0.000134551 0.998058 0.0622911 0.000145825 
0.990959 -0.134163 0.000144646 0.927356 -0.37418 0.000126089 0.795491 -0.605966 0.000113257 
0.829206 -0.558943 0.000102614 0.880571 -0.473915 0.000109933 0.774791 -0.632218 9.47815e-05 
0.766061 -0.642768 9.57852e-05 0.768528 -0.639816 0.00010244 0.774694 -0.632336 0.0001137 
0.72911 -0.684396 0.000133759 0.77522 -0.631692 0.000124712 0.779121 -0.626874 0.000120095 
0.771319 -0.636448 0.000131899 0.765387 -0.64357 0.000133953 0.76637 -0.6424 0.000128176 
nan nan nan nan nan nan nan nan nan 
0.813459 -0.581623 0.000123053 0.81708 -0.576524 0.000128781 0.820049 -0.572293 0.000145437 
nan nan nan nan nan nan nan nan nan 
0.887057 0.461659 9.00799e-05 0.886721 0.462305 8.85359e-05 0.910824 0.412795 9.21445e-05 
0.93822 0.346039 0.000111663 0.947427 0.319971 9.74408e-05 0.977224 0.212212 0.000113427 
0.98201 0.188831 0.000101251 0.998592 0.0530543 0.000111819 0.999259 0.0384934 0.000100926 
0.992536 -0.121955 0.000108957 0.992745 -0.120235 9.60968e-05 0.93769 -0.347473 0.000107879 
0.954215 -0.299123 8.89627e-05 0.891577 -0.452868 8.31598e-05 0.848982 -0.528422 8.26274e-05 
0.841585 -0.540124 8.7704e-05 0.847324 -0.531076 9.76597e-05 0.806909 -0.590675 0.000112778 
nan nan nan 0.84869 -0.52889 9.98314e-05 nan nan nan 
nan nan nan nan nan nan nan nan nan 
nan nan nan nan nan nan nan nan nan 
nan nan nan nan nan nan nan nan nan 
nan nan nan nan nan nan nan nan nan 
0.896412 0.443222 9.89458e-05 nan nan nan 0.896739 0.44256 9.87298e-05 
nan nan nan 0.894643 0.446781 9.01996e-05 0.921523 0.388323 8.84611e-05 
0.9588 0.284081 8.97746e-05 0.989357 0.145508 9.03679e-05 0.99999 -0.00452385 8.80619e-05 
0.989569 -0.144059 8.29804e-05 0.961205 -0.275836 7.80641e-05 0.921913 -0.387398 7.61877e-05 
0.895241 -0.445582 7.96097e-05 0.881589 -0.472018 8.75824e-05 nan nan nan 
0.893981 -0.448104 8.40772e-05 nan nan nan nan nan nan 
0.903838 0.427875 9.50015e-05 0.912477 0.409128 9.66044e-05 nan nan nan 
0.933594 0.358332 9.23376e-05 0.934686 0.355474 9.19919e-05 0.968067 0.250692 8.94274e-05 
0.99387 0.110555 8.78763e-05 0.999224 -0.0393913 8.50645e-05 0.985241 -0.171176 8.12852e-05 
0.960442 -0.278479 7.81943e-05 nan nan nan nan nan nan 
nan nan nan nan nan nan nan nan nan 
0.936268 0.351287 0.000125908 0.931171 0.364582 0.000107479 0.935038 0.354548 9.22526e-05 
0.950163 0.311754 9.9416e-05 0.971183 0.238336 9.20977e-05 0.977695 0.210031 9.53281e-05 
0.995518 0.0945774 9.06883e-05 0.997116 0.0758975 9.21911e-05 nan nan nan 
nan nan nan nan nan nan nan nan nan 
nan nan nan nan nan nan nan nan nan 
nan nan nan nan nan nan 0.834256 -0.551378 0.000277849 
nan nan nan 0.999927 -0.0121077 0.00022253 0.970147 0.242516 0.000160769 
0.952106 0.305767 0.000130005 0.963806 0.266604 0.000115505 nan nan nan 
nan nan nan nan nan nan 0.28612 -0.958194 0.00030278 
0.28962 -0.957142 0.000263067 0.517025 -0.85597 0.00028152 nan nan nan 
nan nan nan nan nan nan nan nan nan 
nan nan nan nan nan nan nan nan nan 
0.991979 0.126398 0.00112074 0.839024 -0.544094 0.000913213 0.817668 -0.575688 0.00110359 
nan nan nan 0.475915 -0.879491 0.000701604 nan nan nan 
0.255794 -0.966731 0.000454011 0.137012 -0.990569 0.00031993 nan nan nan 
nan nan nan nan nan nan nan nan nan 
nan nan nan 0.947691 0.319187 0.00123791 0.85053 -0.525925 0.00137093 
0.415498 -0.909594 0.000833796 nan nan nan nan nan nan 
nan nan nan nan nan nan nan nan nan 
nan nan nan nan nan nan nan nan nan 
nan nan nan -0.0573615 0.998353 0.000597379 0.496909 0.867802 0.000922503 
nan nan nan nan nan nan nan nan nan 
nan nan nan nan nan nan nan nan nan 

FIELD FieldData 1
vtkGhostType 1 555 unsigned_char
0 0 0 0 0 0 0 0 0 
0 0 0 0 0 0 0 0 0 
0 0 0 0 0 0 0 0 0 
0 0 0 0 0 0 0 0 0 
0 0 0 0 0 0 0 0 0 
0 0 0 0 0 0 0 0 0 
0 0 0 0 0 0 0 0 0 
0 0 0 0 0 0 0 0 0 
0 0 0 0 0 0 0 0 0 
0 0 0 0 0 0 0 0 0 
0 0 0 0 0 0 0 0 0 
0 0 0 0 0 0 0 0 0 
0 0 0 0 0 0 0 0 0 
0 0 0 0 0 0 0 0 0 
0 0 0 0 0 0 0 0 0 
0 0 0 0 0 0 0 0 0 
0 0 0 0 0 0 0 0 0 
0 0 0 0 0 0 0 0 0 
0 0 0 0 0 0 0 0 0 
0 0 0 0 0 0 0 0 0 
0 0 0 0 0 0 0 0 0 
0 0 0 0 0 0 0 0 0 
0 0 0 0 0 0 0 0 0 
0 0 0 0 0 0 0 0 0 
0 0 0 0 0 0 0 0 0 